sampleid,composition,Temperature,Seebeck coefficient,Thermal conductivity,ZT,Electrical conductivity
12884,EuZn2Sb2,600,0.00017143663477969118,1.5026254252471316,0.7875642533474843,64100.83584266497
15042,Cu2Se,600,0.00015563223555619692,0.8390132071298539,0.6975482181212318,33053.15349310246
12419,Nb0.99Ti0.01CoSn0.96Sb0.04,600,-0.00014948283324119012,6.1478565495893225,0.14918136574519578,67363.11982628556
302,Pb0.997Ga0.003Se1,600,-0.00020185878223176508,1.4507574949366775,0.8425600173738311,49997.59578088018
17036,Zn4Sb3,600,0.0001930026185709212,0.6206053007072883,1.1687399452059208,33200.76780982372
12823,In3.9Zn0.1Se2.95,600,-0.00040524624920489696,0.8223994458273578,0.2498417823999259,2130.7796217980485
13352,Zr3Ni2.7Co0.3Sb4,600,0.0001112410551241857,2.8560977154894127,0.2305515285476002,87951.58447019252
4478,Cey(Fe3.7Ru0.3)4Sb12,600,0.00012381043563716902,2.5182048984429817,0.620562629439473,163367.613412275
16522,Zn0.98Sb,600,0.000277185817071678,1.181925412117398,0.44882713441637545,11895.277697916823
13521,NdOZnSb,600,0.00021137817596601077,0.9368018067605648,0.07338696068976497,2804.3853581241633
17037,Zn4Sb3,600,0.00019279428610979868,0.6491940589297264,1.1715170100153696,34694.07991089956
10980,ZrCoSn0.05Sb0.95,600,0.00020608293578518145,8.008599182753052,0.12928232636277176,37910.74943269492
13399,Cu2Mn0.01Sn0.99Se3,600,0.00010132572036761712,2.0876877711921504,0.2766996388766372,80407.1651579575
12824,In3.9Ga0.1Se2.95,600,-0.0003778828934251141,0.8496833279356667,0.2698118724171222,2634.868419726478
4477,Cey(Fe3.8Ru0.2)4Sb12,600,0.00012458575243494424,2.647671946296413,0.6001187015427533,165102.60795378193
249,Pb1.003Se0.88S0.12Cl0.006,600,-0.0001751096484106369,1.487367766426881,0.7816844475089886,70860.33347297902
12825,In3.9Sn0.1Se2.95,600,-0.00033844035293357263,0.6495398934378561,0.2477929988284843,2121.8212619975147
17035,Zn4Sb3,600,0.00017068734930787493,0.5972408452350996,0.4826726578166515,17711.298265703048
6331,YbZn1.7Mn0.3Sb2,600,0.00014675267680001555,1.710302412523444,0.2402771023160436,30585.092171909084
13351,Zr3Ni2.8Co0.2Sb4,600,0.00013903192151452974,2.468659111150472,0.3357392752733225,72455.23437189082
12826,In3.9Pb0.1Se2.95,600,-0.0002066159804005317,0.8753879273343488,0.19178756552325804,6082.799800555323
5033,In0.25Co3.8Ni0.2Sb12,600,-0.00020372699374715872,2.608430333122466,0.4591653661874989,46478.87821608901
16520,ZnSb,600,0.0002823364363080256,1.2371718410058827,0.3242143856456703,9756.222600419267
12814,Cu2ZnSnSe4,600,0.00026712596150706803,1.3730479805697633,0.1698125806115394,4858.0942514579165
6017,Eu11Cd5ZnSb12,600,7.233335289381893e-05,0.8268515009657867,0.0960622197235914,23073.150667386308
12815,Cu2ZnSn0.95In0.05Se4,600,0.0001932720151440408,1.5326934028244228,0.20994278632886126,13234.006953290069
6335,Yb0.4Ca0.6Cd2Sb2,600,0.0002511874284099281,0.8877192986165324,0.6687774327038968,15778.775798340683
14606,Cu2.2Zn0.8SnSe3.9Te0.1,600,0.00011304158733326448,1.2782260299490875,0.2431028148323836,33751.96493071371
4480,Cey(Fe3.5Ru0.5)4Sb12,600,0.00010586130322921551,2.8130710208043435,0.41271626818751134,170255.29019549562
6336,Yb0.5Ca0.5Cd2Sb2,600,0.00022913248221601826,0.8538274839248737,0.7337161017483957,19921.91945084905
13355,Zr3Ni2.7Cu0.3Sb4,600,-0.0001467566886643154,3.44404102337256,0.2904797004284709,75437.0667243607
6334,Yb0.2Ca0.8Cd2Sb2,600,0.00029922389099923635,0.8505151200821743,0.3674270750807328,4880.997161453062
10160,MnSi1.705272Ge0.027728,600,0.00017196048850969892,2.4009131942695148,0.2232239555085156,30207.074524452622
6332,YbZn1.6Mn0.4Sb2,600,0.0001272147451909383,1.7027768094731128,0.2095754913408285,37955.92610572732
17038,Zn4Sb3,600,0.0001942919189421336,0.6759582387620867,1.1574473576548965,35220.13872413837
4479,Cey(Fe3.6Ru0.4)4Sb12,600,0.00011846668792594702,2.6324143043818693,0.4938650604334043,167562.12460234403
13354,Zr3Ni2.5Cu0.5Sb4,600,-0.00011340385119679553,3.2674477502178467,0.266889547562951,104254.34605318173
12816,Cu2ZnSn0.90In0.10Se4,600,0.00017953296619241708,1.5903056048289774,0.21863797877832694,16630.673404096502
14470,CuGa0.99Zn0.01Te2,600,0.00016400394995577655,3.4420690384550716,0.1266514736668136,28305.980004910016
491,Fe0.98Mn0.02Si2,600,0.00012824479634020804,5.443973898655784,0.02118806258521399,11688.977605092989
16521,Zn0.99Sb,600,0.0002968021892861792,1.2168782699416294,0.40636243985417103,10990.777551925385
12817,Cu2ZnSn0.85In0.15Se4,600,0.00015746832984311334,1.6881459822764469,0.19022854442419299,19434.557612943212
495,Fe0.98Co0.02Si2-SiC-Cu2mass%,600,-0.0002511344465644789,4.3913236396451225,0.05602055744597248,6500.983275662837
10236,FeAl0.06Si1.95,600,0.00020115163175367395,6.411818126324648,0.047465472920305236,12536.047728789576
494,Fe0.98Co0.02Si2-SiC,600,-0.0003341003600560934,3.7434270164380687,0.09269839042039536,5181.272405162883
493,Fe0.98Co0.02Si2,600,-0.00018212787181009723,4.978343953608632,0.02675909600259516,6693.484473433531
10097,MnSi1.733,600,0.0001832566531295576,2.202837722529144,0.3002991123361677,32829.615909245
12844,Yb14MnSn11,600,9.974463981696742e-05,0.8155445973717175,0.2572665541579789,32216.150696775454
492,Fe0.98Mn0.02Si2,600,0.00012904143238746685,6.228209289066172,0.02133536164184724,13300.060174860315
4476,Cey(Fe3.875Ru0.125)4Sb12,600,0.00012565507946449972,2.71586284824994,0.5786008538464305,165093.03160377016
5032,In0.25Co3.9Ni0.1Sb12,600,-0.00022360125540564623,2.9128034807038587,0.5533135072908669,50924.65032076536
4710,Ca0.15Co3.98Ni0.02Sb11.80,600,-0.00018285635307204899,4.323928667200576,0.3809965963252243,79325.49385551187
12850,Re3GeAs6,600,-0.00011465037636904404,4.2646364638306675,0.15177598226901706,65878.08558035946
13608,Ca5Al2Sb6 ,600,0.00032978177144072013,0.9375769384993368,0.05561223406194296,724.6280982860118
498,Fe0.98Co0.02Si2-SiC-5mass%Cu,600,-0.000127811846851147,4.996018080717674,0.028940681872606188,14751.605503246608
11089,PbTe 0 GPa,600,-2.2414351278932706e-05,1.4870027893253777,0.0005317652312619691,2623.1801849709586
17008,Zn4Sb3,600,0.00018249923041514335,1.0208317649196337,0.5537234119595296,27490.728025581502
17009,(Zn0.005Nb0.995)4Sb3,600,0.00017950886598252767,0.7264374093929588,0.9191404657200436,33113.483381669204
17010,(Zn0.01Nb0.99)4Sb3,600,0.00022258214146813203,0.8374272433760293,0.4864927285879698,12635.099514325751
496,Fe0.98Co0.02Si2-Sic-2mass%Cu,600,-0.00023526393726236894,4.598474914950664,0.054269351462035216,7514.610607311133
9484,(GeTe)12Sb2Te3,600,0.00022091282534776992,1.525993687334806,0.8843040678025873,46467.58823723703
13400,Cu2Mn0.02Sn0.98Se3,600,9.709422818373828e-05,2.414415646335996,0.22424111456030635,87119.0966130871
6018,Eu11Cd4.5Zn1.5Sb12,600,0.000184141017170877,0.7029272042435182,0.3632088443463965,14423.70222842383
13349,Zr3Ni2.95Co0.05Sb4,600,0.00017593506515588102,3.056866733123617,0.21806523419945376,34299.369809505464
10161,MnSi1.73Cr0.01,600,0.0001926752191124464,2.2405202925897223,0.24362208692108325,24505.443533217946
9460,PbBi2S4,600,-0.00023331884422234087,0.5644148512568736,0.2843743983340337,5179.317784412287
9489,(GeTe)17Sb2Te3,600,0.0002069439439192489,1.467367579818729,1.25525970276247,72210.71642400375
6330,YbZn1.8Mn0.2Sb2,600,0.00012318797266725742,1.6589961621977265,0.1877748962614815,33188.12717587493
16523,Zn0.97Sb,600,0.0002774421657682311,1.1452225397765456,0.4923833938229564,12345.415578453883
6329,YbZn1.85Mn0.15Sb2,600,0.0001466419606855268,1.6934704465753525,0.4451337654750991,55422.83768223604
6326,YbZn2Sb2,600,0.00010504071627852314,2.2232112419790004,0.3113833308058416,98359.7671304234
10162,MnSi1.6,600,0.00016318199379945718,3.224738395788407,0.1944324094829593,39243.47220055826
6327,YbZn1.95Mn0.05Sb2,600,0.00013781752573076885,1.7259687678761306,0.4112735089533298,58796.54601515434
9605,Mg2Si0.6Sn0.4,600,-0.00017343846109833358,4.07292845350148,0.5095723637325682,109697.58478739813
6328,YbZn1.9Mn0.1Sb2,600,0.00012582324488548502,1.764158976535491,0.4016694517579054,70000.50584292613
16524,Zn0.96Sb,600,0.0002765586705751618,1.1271483017536563,0.455356396373125,11562.570518501103
12418,Nb0.99Ti0.01CoSn0.98Sb0.02,600,-0.0001613440264963738,5.706215921141172,0.1360937124547797,47369.18128029159
4709,Ca0.20Co4Sb12.46,600,-0.00017415248960869336,3.842564026170047,0.2255619143642403,46699.82886902103
14460,In0.005Sn0.995Te,600,8.987320433864445e-05,3.325315645320852,0.36954683410598016,227020.78377598344
15893,Ga12Sb2Te12Se3,600,0.0002306653527865746,1.3239947270137629,0.9422395369308326,38340.44281061154
5989,YbCdZnSb2,600,0.0001357038216077823,1.479027115309525,0.6776948810401857,87776.31002351044
5310,CoSb3,600,0.00014791119451522695,4.6730291039635645,0.3328657739509429,118498.89182338477
10651,LaCoO3,600,4.472853786383974e-05,2.2441369377727733,0.00834209640249082,17567.98536363678
12412,NbCoSn0.98Sb0.02,600,-0.00013129272537014592,6.496353806815497,0.1360937124547797,81378.51944056306
13549,In4Se2.32Cl0.03,600,-0.00019730116244245536,0.8407448958860246,0.559587092312164,19618.392454058943
6405,EuCd1.4Mn0.6Sb2,600,0.00014934591364335726,0.8888847279469314,0.043614669866572864,2895.5878913505085
15077,ErB22C2N:ErB4,600,-2.1701851049287735e-05,2.015778053621609,6.363615171937225e-07,4.5394351278616325
13550,In4Se2.32Br0.03,600,-0.000274563327584577,0.709257831697975,0.8261350647511914,12735.538823430208
6404,EuCd1.6Mn0.4Sb2,600,0.00032371107017817617,0.7780828632354121,0.1732245475352323,2240.0803747536484
6403,EuCd1.8Mn0.2Sb2,600,0.0003106188912122428,0.8362144930439571,0.23963082504458635,3474.696590578067
16462,(Zn0.999Sm0.001)4Sb3,600,0.00018822327867080922,0.7923453192475323,0.7106429765294267,24972.380739788277
5997,Eu11Cd6Sb10As2,600,9.312663462745674e-05,0.6958917295709875,0.06664655548274698,8722.175496743379
14194,CuIn0.9Cd0.1Te2,600,0.00018160060065837658,1.6208080767099498,0.3081485152962228,24150.92757661629
14190,MnTe0.9S0.1,600,0.0004292125159685133,0.7837094739673001,0.2736374812025241,1983.6459269066995
16463,(Zn0.998Sm0.002)4Sb3,600,0.00018091766459343245,0.5830249441190679,1.069181358609936,26673.084170188824
16464,(Zn0.997Sm0.003)4Sb3,600,0.00018766583819270584,0.8161467206100149,0.7098734689383779,25945.614054765665
16465,RuGa2,600,0.00015172295704179512,3.4956344117580285,0.3738942745784324,90065.53155045205
12639,WOx here x is 2.84.Matrial family tungsten oxide,600,-3.262924522717814e-05,5.593049741112875,0.02774758818351049,257709.51206619345
15003,(CuInTe2)0.995(2ZnTe)0.005,600,0.0002712239318055404,2.121761882086897,0.32606558715986605,15674.523367601165
12634,WOx here x is 2.9.material family tungsten oxide,600,-3.927872878722938e-05,4.026923047896595,0.021636251430999627,78063.18964959656
10252,Hf0.75Zr0.25NiSn0.98Sb0.02,600,-0.0001329279707258876,4.5762623375235005,0.36976694400912496,145473.46479679743
13551,In4Se2.32I0.03,600,-0.00034317377211072714,0.6704884593093635,0.8691265282076597,8000.64620965982
14189,MnTe0.95S0.05,600,0.0004801383379526135,0.8088673985770263,0.2573318688145394,1612.9518305472614
5311,CoSb3,600,0.00016905651910558342,4.7430730663447935,0.4643374898377372,128433.54461858199
14188,MnTe,600,0.0005444557951897787,0.8819404491701677,0.2254398547430789,1317.8779539179375
6402,EuCd1.9Mn0.1Sb2,600,0.0002959566111064324,0.9561610461580105,0.23395800617500884,4361.8288488940425
5233,La0.3FeCo3Sb12,600,0.00013283772998485383,2.6521721109896177,0.16470171180826487,36842.72284285556
5996,Eu11Cd6Sb11As,600,0.00012677638375887537,0.6501924102408086,0.1510476758540531,10114.635749124662
2054,Fe0.92Mn0.08Si2.1,600,0.00027188901138090364,5.451235675945539,0.038814567934747586,4770.403919209057
13547,In4Se2.35,600,-0.00032259497656688036,0.7589081200889176,0.7350248570971165,9192.703566394395
9356,Mg2Si0.9Sb0.1,600,-0.00014616984443123517,2.4844563538653026,0.29543275651701856,59224.25650715236
5088,CoSb3,600,9.212291996269173e-05,1.5440362587822976,0.08866487106586228,26885.76764736809
10104,MnSi1.78,600,0.00020950815956106641,2.4649597113001502,0.07216737634589337,6754.5684654538045
343,Pb0.98Na0.02Te0.88S0.12,600,0.0002712136507516758,1.2314645216467044,1.1041888584044537,30809.94515791687
9483,(CoGe2)0.15(GeTe)12Sb2Te3,600,0.0002323067724310425,1.4633836544606096,1.0097505979943602,42480.70264118878
240,Pb0.98Na0.02Te0.84S0.16,600,0.00025507510200340535,1.297360031338945,0.8006972378612753,26609.790549444966
4615,La0.3Co3.68Ni0.32Sb11.84Te0.16,600,-0.00016823641159286585,2.378338687835549,0.6330730866484932,83700.73089688369
5990,YbCd0.8Zn1.2Sb2,600,0.00011536475455166509,1.4559445385651162,0.5148048799433205,90478.14843154297
11029,NiZrSn,600,-0.00019189062664020282,8.527601553207518,0.12858933577946124,40102.45473901358
2052,Fe0.92Mn0.08Si1.9,600,0.00021758989621925725,5.836475002077826,0.04015567988908237,8250.284270266657
10253,Hf0.75Zr0.25NiSn0.96Sb0.04,600,-0.00010260205505365736,6.17167093906526,0.3057876175133861,301983.5248112977
16461,Zn4Sb3,600,0.00018388747872975368,0.8201383939063119,0.4939125303945381,19651.305360819977
6406,Yb14MnSb11,600,0.00013209510491901894,0.9099871189067466,0.1844121327209563,15326.412329437851
5309,CoSb3,600,0.00017431488950110836,4.619872407801899,0.6029162134813978,152780.07680745097
9607,Mg2Si0.6Sn0.4,600,-0.0001703466653828669,3.1203205268704357,0.6358773234999078,110397.67923700828
15069,CaB6,600,-0.00010774415336014875,19.010953004067158,0.0979720016171788,228649.38553566602
10254,Hf0.75Zr0.25NiSn0.94Sb0.06,600,-7.623276280600708e-05,7.715053513685335,0.18885556942843373,398823.16787881276
13548,In4Se2.32Fe0.03,600,-0.00042131275705434187,0.6192523907516574,0.4308315596996854,2887.0433391482698
4519,CoSb2.8Te0.2,600,-0.00013575603497728876,3.904446646713665,0.3416177063028785,120821.19191386734
2053,Fe0.92Mn0.08Si2.0,600,0.00026949475392776603,5.874548627465366,0.04578528707587858,6172.321842118138
6409,Yb14MnSb11.022,600,0.0001218975101519775,0.8095845599547711,0.2125317859230122,18923.12169141105
16422,Ag0.5In0.425Pb5Sn4Te10,600,0.00021019981713534208,0.9053391656681866,0.674002519923679,21319.4256473865
6408,Yb14Mn1.15Sb11,600,0.0001818263253141141,0.7998753084301315,0.10963217560013062,4323.537060312113
11064,Al2CrCoFeNi + 5 wt.% Sc,600,-1.583727236460696e-05,13.891113131521244,0.007743459062058198,714695.4570217329
236,Pb0.98Na0.02Te0.92S0.08,600,0.00023776158791266177,1.303726153791084,1.055999590147252,40589.66734385351
10145,MnSi1.75,600,0.00017371639883591446,3.4992308559955787,0.1476836082322138,28541.185215169593
14168,Tl4PbTe3,600,0.00017836572552322954,0.5375250573697512,0.4922573551352876,12083.275645053203
10250,Hf0.75Zr0.25NiSn0.96Sb0.04,600,-0.00010199884448685792,4.89876618250896,0.2550217267813928,201271.55706929998
12659,NbCo(1+x)Sb here x is 0 ,600,-8.554633180151179e-05,5.664471413291952,0.18483541923836644,222423.60579564355
12660,NbCo(1+x)Sb here x is 0.2,600,-9.639649092119648e-05,5.3359518414377956,0.20564179014038705,189162.3170911657
10146,MnSi1.73,600,0.0001964862640319852,2.290378155308008,0.22241920914694144,21991.95532129683
1930,CoSi,600,-8.610984397993832e-05,13.119558788381669,0.1401855184485756,438124.9671411456
10249,Hf0.75Zr0.25NiSn0.98Sb0.02,600,-0.00012480174587821579,3.2801397252750557,0.28257474837194874,94029.34977292447
9608,Mg2Si0.6Sn0.4,600,-0.00016642084309086705,2.9217488477325784,0.6612912580186079,109159.3882224766
310,Pb0.96Ca0.03Na0.01Se1,600,0.00011982256299778177,1.6444705496282248,0.4376211283245085,79332.58274660178
14999,Cu2ZnSnSe4,600,0.00014280149407079506,1.0218825495346535,0.1389202306500224,11957.791281592199
12641,WOx here x is 2.88.Matrial family tungsten oxide,600,-3.6912963406788504e-05,4.5805997196038835,0.025160873798476955,131760.4832817702
4617,La0.3Co3.68Ni0.32Sb11.84Te0.16,600,-0.00018535387766458852,2.1814531948694884,0.7323435078196256,72090.15274608717
12642,WOx here x is 2.92.Matrial family tungsten oxide,600,-4.6922585903389786e-05,3.769728233621189,0.023443156903394137,57420.70354370772
16466,RuGa2,600,0.00014100731958941622,2.911437376560262,0.39485919611922576,95856.14053513047
12640,WOx here x is 2.86.Matrial family tungsten oxide,600,-3.28893633997424e-05,5.1091602851812485,0.02540765848809108,189875.6305563936
11050,9.104 × 10−3 mol % PbI2-doped PbTe,600,-0.000235872134103922,1.3145359309168594,0.8695412740538903,31171.423086577783
4518,CoSb2.9Te0.1,600,-0.00014670207371650314,5.116200928367876,0.2637659851866969,107838.93913938334
5988,YbCd1.2Zn0.8Sb2,600,0.00014269356562322702,1.3683807622536064,0.6843604930678411,73691.34274464847
10144,MnSi1.74,600,0.00011885510635676523,4.739250977527319,0.09810215506644837,54853.11758779027
9449,Pb3Bi2S6,600,-0.00015112815775051086,0.7394625642321538,0.17738288285760814,9987.805301260983
325,Pb0.97Ba0.02Na0.01Se1,600,0.0001265875082557729,1.5681608152369044,0.4839154742898744,69683.09831700544
10108,MnSi1.73Cr0.005,600,0.00018923234386884944,2.107112487420265,0.25325208151703504,24836.978236260864
16423,Ag0.5In0.4Pb5Sn4Te10,600,0.00016455402893890568,1.189389964183833,0.7061927562072039,49112.71683742196
16467,MnSi1.7,600,0.00017786726858496342,2.2224851100205774,0.2030165506072063,24761.52171372036
6401,EuCd2Sb2,600,0.00030534606813342334,1.026356712731374,0.4785519595923602,8899.22547077423
10251,Hf0.75Zr0.25NiSn0.94Sb0.06,600,-7.744399205872972e-05,5.532708740282725,0.15663667578780152,240853.99359363827
370,Pb1Se1Cl0.001,600,-0.00025087581059067906,1.2784950615816704,0.7253399037452567,24556.80136540346
15000,Cu2ZnSnSe4,600,9.626146114486022e-05,1.1591727947240942,0.13904458292601926,30411.454534641278
10123,MnSi1.74,600,0.00016609403300158233,2.983410377502346,0.21461988110995373,38683.31057601565
5232,La0.6Fe2Co2Sb12,600,0.00017241668548235908,2.04769563177578,0.4040808849706676,44160.832478830125
2295,Ba24Ag4Ge96,600,-5.234254686736418e-05,2.2992874690846814,0.1119782866146456,149846.0561833419
12529,Ti9Cu2Ru18B8,600,3.9026059439505125e-05,10.909101719180413,0.03903364183067523,439429.4176138564
15072,CaB6:SrB6=25:75,600,-0.00012135783580973033,14.100196244764561,0.11301220360917202,157625.2846029025
11014,Fe2.2V0.8Si,600,-4.757953963820565e-05,11.065544146485124,0.041259626629241535,358201.0526095012
5992,YbZn2Sb2,600,9.334528530083817e-05,2.6140893814459094,0.29307669389309193,137616.00640055744
288,Pb1.004Se1Cl0.008,600,-0.000129645483338951,2.0792567393885117,0.4153402048953617,85633.96595008112
10259,HfNiSn0.98Sb0.02,600,-0.00011466397020839414,6.7072847632788655,0.2702323156369396,213634.41437884214
12528,Ti9Ni2Ru18B8,600,3.382442404079921e-05,10.605699405065343,0.024064917516005625,344788.68350994954
234,Pb0.97Ca0.02Na0.01Se1,600,0.0001101998246801237,1.8674342173838072,0.40505208965258005,93020.30493500852
17231,Zn4Sb3,600,0.0001693294830390288,1.0266110794693468,0.6422193652547532,41936.87349075763
12527,Ti9Co2Ru18B8,600,3.2978320173643025e-05,9.286107869314986,0.0248705242254224,329316.7823898084
369,Pb0.98Na0.02Te0.7S0.3,600,0.000247501570986838,1.3074972790134396,0.8216576286207568,29229.7105892672
253,Pb1.02Se1,600,-0.00010031300553029752,2.4589880608303902,0.3610944167502512,147065.72141541215
237,Pb1.002Se1Cl0.004,600,-0.00019777034136928998,1.3573944593730785,0.8040738191016545,46508.080660977634
2294,Ba24Ag2Ge98,600,-4.7440035836767906e-05,2.5963702631585943,0.10037343109408213,174292.23023425945
15018,GeSb6Te10,600,8.068019668470443e-05,1.5840056811993046,0.2582877598132879,96912.12564456166
17220,Zn4Sb2.94In0.06,600,0.00018464561677403518,0.7173570629626199,0.9259299004427696,31095.552122178815
16420,Ag0.5In0.5Pb5Sn4Te10,600,0.00022909911947945795,0.9251497703226176,0.3701579013444625,9769.268641145463
17221,Zn4Sb2.92In0.08,600,0.00018352726803537344,0.7888031312938857,0.8356946270828371,32458.53083507185
207,Pb1.003Se0.92S0.08,600,-0.00015028514041526687,1.8608303859310595,0.9053180626948508,124315.31686835922
6526,Ti1.008S2,600,-0.00014817211071752544,2.2201579685094863,0.19504898663122844,35101.12596999643
11015,Fe2.08V0.92Si,600,-5.0871609183391714e-05,11.574951179397015,0.05030648654867968,371904.20434196375