sampleid,composition,Temperature,Seebeck coefficient,Thermal conductivity,ZT,Electrical conductivity
9459,PbBi2S4,550,-0.00023757329578776978,0.5702049960683582,0.24003491348951944,4674.802352427901
6012,BaGa2Sb2,550,0.0002992899249025963,1.0084910278140988,0.07540064367417702,1421.6513360533402
16464,(Zn0.997Sm0.003)4Sb3,550,0.00017666950314543342,0.8504399534288636,0.6144114092303965,26933.728178920726
10262,Hf0.5Zr0.5NiSn0.98Sb0.02,550,-0.00012922934770102568,4.145284261288843,0.409641899648209,174370.18029465858
8215,Bi2Sr2Co1.7Ox,550,0.00012306816747555322,0.9749232528361952,0.010048540710968588,1052.661552879337
16440, (Zn0.995Cd0.005)4Sb3,550,0.00017456469707639237,0.6956911544365973,0.927277854734262,38305.38977317723
16496,(Mn0.8Cr0.2)Sir,550,0.00012771230061879162,2.52994811580449,0.23426133069527685,63971.519807910656
13248,In4Pb0.01Sn0.03Se2.5,550,-0.0002592638510371194,0.8038475717445285,0.552174736629762,10834.569877374955
16494,(Mn0.9Cr0.1)Sir,550,0.00015767188383995848,2.6468009610267957,0.2195178427438256,41151.769426581755
13349,Zr3Ni2.95Co0.05Sb4,550,0.0001813582586253434,3.0604777744246388,0.21385187559855684,33929.46751936663
13247,In4Pb0.01Sn0.03Se2.6,550,-0.00025261623570335586,0.8421761970352432,0.5704089587170287,12519.349279664804
16467,MnSi1.7,550,0.00016872590885105225,2.207777326119953,0.18012785142940618,25899.794342482142
10251,Hf0.75Zr0.25NiSn0.94Sb0.06,550,-7.341230955061342e-05,5.603596172523326,0.13837223568879892,260423.19860619892
6006,Yb14MgSb11,550,0.00011908697454922007,0.7891979874451255,0.25624680452665005,22567.39636670731
1349,Si91.25Ge8.75P0.45,550,-0.00017022766368711705,5.552095652374401,0.25985426643495724,90524.01845954939
16630,(Zn4Sb3)0.95In0.05,550,0.00018455031165250747,1.7966476070193884,0.21079432658199992,20410.147587008407
5988,YbCd1.2Zn0.8Sb2,550,0.0001309981957353894,1.4560990343924731,0.5686829485873736,78821.9057633552
10897,Fe2VTa0.12Al0.88,550,-9.610223557385556e-05,11.207584441462467,0.14831282782512198,370455.44923872827
10230,(FeSi2)0.875(TiB2)0.125,550,-0.00014607607425910286,6.0885536462068295,0.054813557397237735,28436.8350250041
16495,(Mn0.85Cr0.15)Sir,550,0.00013584689584627185,2.515021078906234,0.2171278751998328,54628.03934168137
13400,Cu2Mn0.02Sn0.98Se3,550,8.983954223701117e-05,2.634228617130704,0.1851288969715877,94596.11693959749
16629,Zn4Sb3,550,0.00016469488635760508,2.1220892839433008,0.20078004520042275,27608.135215161157
10223,Fe0.9Fe0.95Co0.05Si1.958Ge0.0425Cr0.05Si1.946Ge0.054,550,-0.00015576948780330263,4.785244087266734,0.05236662490277439,18777.21616907137
5990,YbCd0.8Zn1.2Sb2,550,0.0001044216667118636,1.5583812459769308,0.4235385345001608,99851.91320241056
13310,Ce0.8Cu0.2Se2,550,0.0002823833639878336,1.525770784563396,0.05473475454698405,1945.7431324353765
16640,Zn4.08Sb3,550,0.00014936223160511903,0.7969238041357409,0.5998544017458506,38279.226192473165
10888, Bi 0.5 Sb 1.5 Te 3 (+ 0.22 wt% Cu),550,0.0001399273436794646,1.3329511160925305,0.8033987758405179,84799.81107215426
5024,Sn0.1Co3FeSb12,550,0.00010782903980252923,2.212639568713466,0.1397483676827503,44708.61826124275
5997,Eu11Cd6Sb10As2,550,9.217022983038815e-05,0.7019507091481367,0.06181510406988716,8917.727410312304
16510,Zn3.725In0.075Sb3,550,0.00019988050738492557,0.642302264690624,0.9994362322074222,26507.489972615487
14349,Cu2HgSnSe3.2Te0.8,550,0.0002125300129596321,0.3880785655758976,0.4481809762290588,7455.889248065028
5996,Eu11Cd6Sb11As,550,0.00012408090788612,0.6690734228101787,0.13956238915458505,10771.5687725037
5026,Sn0.3Co3FeSb12,550,0.0001397070877263293,1.5052739093710217,0.2612636494214615,34669.091218469934
16642,Zn4Sb2.98Te0.02,550,0.00015349897108090968,0.7276509914974965,0.6252724557644955,36683.824054383935
6019,Eu11Cd1.6Zn4.4Sb12,550,0.00010886435236340432,0.8093741997423232,0.20592687378144225,21180.288239411435
16530,Zn4Sb3,550,0.00017055426386601468,1.0451925481411408,0.4860928732627847,28243.070872448683
1352,Si83.75Ge16.25P1.35,550,-0.0001569781660863277,3.891183401387407,0.3723874934755204,106914.25053822174
10228,Fe0.95Cr0.05Si2,550,0.0003109502960206125,9.919400358587275,0.02145256188257599,4001.473489799397
10254,Hf0.75Zr0.25NiSn0.94Sb0.06,550,-7.087577188761424e-05,7.838627685885023,0.16180098026004924,426317.98705758544
16637,"HMS(Mn4Si7, Mn11Si19, Mn15Si26, and Mn27Si47)",550,0.00016791131856823234,2.673177774200392,0.2373169072800237,39555.9112493593
16462,(Zn0.999Sm0.001)4Sb3,550,0.0001772341040474206,0.8159194976825523,0.6160021980494959,25859.861069106948
13308,CeSe2,550,0.0004503954966479175,0.7161311628678728,0.0036124501211316283,20.58113758345883
9450,Pb3Bi2S6,550,-0.0001174298264619614,0.7480578357791111,0.13388621049304744,13333.202543599644
5032,In0.25Co3.9Ni0.1Sb12,550,-0.0002209006187920337,2.9019186748995716,0.5066015239557062,51309.619716819856
1341,Si80Ge18Sb2,550,-0.00036073160801666077,1.4936677933925149,0.25722857200887805,4395.466882096428
16639,"HMS(Mn4Si7, Mn11Si19, Mn15Si26, and Mn27Si47)",550,0.00017506683700548348,2.269118720854063,0.26276755657474565,35635.814797235784
13388,Cu2.1Mg0.9SnSe4,550,0.00012938883174328232,1.3897738979423258,0.2308686617788453,31173.068704426758
15211,(Ag0.03PbTe)0.945(Ag2Te)0.055,550,-0.00027523832616562914,0.9707976772918958,0.6839881847011401,15901.226321002581
10253,Hf0.75Zr0.25NiSn0.96Sb0.04,550,-9.9922094113339e-05,6.293475631514712,0.2766359005279976,321820.70833397604
16638,"HMS(Mn4Si7, Mn11Si19, Mn15Si26, and Mn27Si47)",550,0.00016062629693049067,2.544097736446253,0.2382305507054581,41510.17527867135
16461,Zn4Sb3,550,0.0001737768431049294,0.8423899328675319,0.4266914723361812,19985.780760145448
13496,K2Bi8Se7S6,550,-0.0001693384605505943,0.5236939636020734,0.3645357842530443,12721.863500165515
13309,Ce0.9Cu0.1Se2,550,0.00033665346979255215,0.8936430408361502,0.10136640361580702,1480.0128590800045
16492,MnSir,550,0.0001927401608578299,2.9172785738966347,0.15991378160899186,23346.722488585303
16564,Mn36.4Si63.6,550,0.00017617946074218062,2.8024041833864,0.24605365805977336,35922.82709101875
6003,YbZn2Sb2,550,0.00021817706035691612,1.674517259439385,0.5942237608638116,36420.234070979095
5981,Ns0.5Yb0.5Fe3CoSb12,550,0.00013991013517154402,1.885076761996068,0.6534168153915988,108480.62346329172
15217,InTe,550,0.00027934657682434776,0.5356197700402393,0.18318201708247775,2325.355164363227
10227,FeAl0.10Si2,550,0.0002340475143327399,6.102298123302258,0.052455416276000214,10624.610141949595
16567,Mn28.4Re8Si63.6,550,0.00014880159207566036,1.8047322004780584,0.4420350664151349,63545.67721748621
13231,Cu2.03Sn0.92Se2.98,550,0.00027682174514548065,2.3001079053090745,0.2289267401028459,12372.775815619587
13399,Cu2Mn0.01Sn0.99Se3,550,9.339070731706397e-05,2.298232713640678,0.2297344798124717,88192.07256205748
16522,Zn0.98Sb,550,0.0002825256653381396,1.2504862431141035,0.354317733815722,9407.499279478116
16447,(Zn0.99Cd0.01)4Sb3,550,0.00016531390490319504,0.8640651611402533,0.7671331987980246,43903.825269017136
15215,In0.997Te,550,0.00021284849052762467,0.4583038034096048,0.7900759487600238,16292.171272354055
6004,Yb1.025Zn2Sb2,550,0.0002135499503874477,1.5394281445071636,0.5872662891990462,31784.638566186568
6016,Eu11Cd6Sb12,550,0.0001424237127513796,0.6658875376833435,0.17665341488270273,10248.95089361567
10894,Fe2VTa0.03Al0.97,550,-9.609209926265409e-05,15.445987311582048,0.07808522729831435,238584.5844602535
14731,Cu1.99In0.01Se,550,0.0001820983904111255,1.1055228221037317,0.3675551317866032,20002.30843175317
5025,Sn0.2Co3FeSb12,550,0.00012889953344330426,1.6710111387462652,0.2210681062380923,38011.495732987634
13355,Zr3Ni2.7Cu0.3Sb4,550,-0.00014630763084863278,3.5590500955237534,0.27018871258322463,78157.0372298953
16566,Mn30.4Re6Si63.6,550,0.0001735850612493093,1.7275215502603374,0.5714406058023249,55780.54022889417
6002,Yb0.99Zn2Sb2,550,0.00012567147230143572,2.112150453305551,0.5081124874487113,105279.76898098217
13275,Zn4Sb3,550,0.00017625825701381582,0.6758025412201802,0.8445489427607827,31252.592367779085
6017,Eu11Cd5ZnSb12,550,6.991450206874038e-05,0.8518515115803799,0.0867267578601621,24910.023725148105
14732,Cu1.99Sm0.01Se,550,0.00013210111847638967,0.901984757724384,0.5508286957671678,44691.29269150789
6001,Yb0.98Zn2Sb2,550,8.549157585405617e-05,2.870238227655157,0.3043504986879367,183306.9883695774
5987,YbCd1.6Zn0.4Sb2,550,0.00015239375617368846,1.3406651537531868,0.7430696894685962,74397.4660975972
15216,In0.995Te,550,0.0002644731065254353,0.5369354336008105,0.3577881443724817,5050.457430939457
16521,Zn0.99Sb,550,0.0003144560086413254,1.2883822346289375,0.3246902241537013,8642.059730222429
13354,Zr3Ni2.5Cu0.5Sb4,550,-0.00011098438054092957,3.3993252916735885,0.2415404610242116,109040.07427607547
8213, Bi2Sr2Co2Ox,550,0.00013568164464548046,0.9132952069716772,0.01124760525598227,918.526409354972
16520,ZnSb,550,0.0003058751148839074,1.3179290998111126,0.2588671998027057,7682.466115627965
16565,Mn32.4Re4Si63.6,550,0.00017216440637829716,1.9965405712369504,0.4354890816348793,50388.04648585741
13243,In4Pb0.01Sn0.03Se2.9,550,-0.00025433099594845856,0.6745832287252858,0.79554193972774,12936.794898267804
13245,In4Pb0.01Sn0.03Se2.7,550,-0.00026061679755432366,0.7162978411899241,0.6566899901516939,11283.202537758027
10249,Hf0.75Zr0.25NiSn0.98Sb0.02,550,-0.00012070982527933467,3.326143882997898,0.25300640106084715,98648.56163925216
14733,Cu2Se,550,0.00014524303376548564,0.8906500217647345,0.5394722889893095,36010.37341036359
16523,Zn0.97Sb,550,0.00027837180533295047,1.203264904745623,0.3900254754851894,9789.48174822672
16622,Zn4Sb3,550,0.00017801600963010398,0.6340667011206582,9.773093131730395e-07,0.03555381191222448
10231,FeAl0.06Si1.95,550,0.00020726164137965848,6.494497229109723,0.04351659852414157,11961.893223043953
5983,Nd0.7Yb0.3Fe3CoSb12,550,0.00014362337537147726,1.9606957899957465,0.5545712288185685,91046.61778609047
6013,BaGa1.975Zn0.025Sb2,550,0.00020383428461161668,0.9992676759278558,0.3810226760766312,15242.511835130765
16524,Zn0.96Sb,550,0.0002792058785030249,1.1863707121132971,0.3600531056466353,9187.198420650915
1344,Si0.8Ge0.2B0.016 ,550,0.00018645279832715496,2.517496971779768,0.2787989211203467,36707.90040154547
8214,Bi1.8Sr2Co2Ox,550,0.0001354952053129425,0.7172170349621328,0.014512850341556069,1025.763045272389
6014,BaGa1.95Zn0.05Sb2,550,0.00022090671756837266,1.0580982355482909,0.3812492441401696,14295.7586483938
10250,Hf0.75Zr0.25NiSn0.96Sb0.04,550,-9.806200091525624e-05,4.985047162711983,0.226024696404642,215857.0071769108
14729,Cu1.99Fe0.01Se,550,0.0001079277471376036,1.066190237648578,0.5027307018971964,76487.6316817592
13351,Zr3Ni2.8Co0.2Sb4,550,0.00013722383117835903,2.470165176698225,0.3055401636484976,73425.20939388075
9460,PbBi2S4,550,-0.00021612171863219786,0.5737296428947443,0.2526765780960931,5999.554699621107
14730,Cu1.99Mn0.01Se,550,0.00011382925027737532,0.9830139230811632,0.5992673460478883,66775.13002611008
12034,Hf0.25Zr0.25Ti0.5NiSn0.998Sb0.002 ,550,-0.0002048830126649479,2.5641101758624547,0.6662393225777694,67972.76214058287
16493,(Mn0.95Cr0.05)Sir,550,0.00016611939973353902,2.5502977556912296,0.2062247841379491,35218.215451998665
13352,Zr3Ni2.7Co0.3Sb4,550,0.00010887864162001498,2.8503367424608306,0.20992995609048928,89974.48789041757
6015,BaGa1.9Zn0.1Sb2,550,0.00022073066285095895,1.02821900729926,0.3668032852642192,13434.871740750465
1345,Si0.8Ge0.2B0.016 (CrSi2)0.091,550,0.0002718423309277178,2.808233880291717,0.31300200722451416,21626.36541659762
10244,AgSbTe2,550,0.0002579838691767344,0.3536589318203493,1.375852337958038,12900.553475968454
13272,Zn4Sb3 ,550,0.00014971850618940676,0.6385118148140134,0.6637145331036625,35496.343486234626
13230,Cu2.03Sn0.92Se2.98,550,0.0002753586342105817,2.2862869235835657,0.23326852830078185,12446.029541135915
13244,In4Pb0.01Sn0.03Se2.8,550,-0.0002662086838529427,0.7344497092263392,0.7414200877633936,12375.561765462528
10226,,550,-0.00017445182219517119,3.6106167024569333,0.0995481869264784,18435.77809025285
5985,Yb14MnSb11,550,9.316413724099667e-05,0.856312137435922,0.20528366604557766,34114.35911887583
13494,K2Bi8Se13,550,-0.0002534095416289879,0.32869363593968914,0.4743945091819896,4696.103247564171
10232,Fe0.97Co0.03Si2,550,-0.00024077273619837352,6.773324074813473,0.045815100834524336,9732.69684351671
5033,In0.25Co3.8Ni0.2Sb12,550,-0.00019878655623924418,2.556530191512947,0.4216657000474289,47335.825873583926
16438,Zn4Sb3,550,0.00016258196906100044,0.7020212475513197,0.8319361748949348,39624.00841036098
6005,Yb1.05Zn2Sb2,550,0.00021006827643613602,1.3023065024177682,0.5578552254469477,24458.78766020336
10895,Fe2VTa0.05Al0.95,550,-0.00012490700208275994,14.61273087094592,0.1727976679642652,340638.44809002924
10889,Bi 0.5 Sb 1.5 Te 3(+0.22wt% Cu),550,0.0001502886024573281,1.0003170073166476,0.7636329479968159,51497.793127936886
13311,Ce0.7Cu0.3Se2,550,0.00017879289555219798,1.6281089200073915,0.06262201069378592,5577.314052794836
15208,Ag0.04PbTe,550,-0.00027404560563039517,1.4222809440645654,0.5022779830896109,18380.536369687707
5982,Nd0.6Yb0.4Fe3CoSb12,550,0.00014266958295460386,1.8515437153702532,0.6744838674599409,105755.61757453557
13401,Cu2Mn0.05Sn0.95Se3,550,6.782738882263072e-05,2.8153326272333534,0.15593937661749172,152136.65541130837
13227,CoSb2,550,-2.6684244270228547e-05,7.4156520009662525,0.011754380041007059,222575.09361581266
16508,Zn3.725In0.025Sb3,550,0.0001746706257213369,0.7268186106281067,0.5852433102205636,22634.93675091896
5031,In0.25Co3.95Ni0.05Sb12,550,-0.0002118767256733084,2.989222569804136,0.6560410482244312,79267.24576886893
13262,Cu2.2Zn0.8Ga0.06Sn0.94Se4,550,9.210043208532538e-05,2.117816031599073,0.16307874030508848,60413.01921695201
5980,Nd0.4Yb0.6Fe3CoSb12,550,0.00013190034478715212,1.926214114988103,0.6332219206384346,121541.01164501732
16535,Zn3.96Cd0.04Sb3,550,0.00017628484934516903,0.7001616713190303,0.9407658222432485,37663.81157397096
16657,AgPb18Sb1.5Te20,550,-0.00015904651582442458,1.1118939341391316,0.6126170738521239,49530.261345420586
8185,FeSi2.0,550,0.00027162168816713357,6.456481472621725,0.029796880872983694,4741.0565567546255
5091,CoSb3,550,8.006362648651898e-05,1.2738194529804,0.07344814907041282,26537.226301848325
11939,GdPdBi,550,7.086437208064963e-05,5.511863969958816,0.07494706025927414,137078.64943760404
13449,Ca2.85Na0.15AlSb3,550,0.00017988849800323542,1.0589699419937304,0.10472213077019232,6230.926417855637
13313,Cu2.00Ge0.93Se2.79,550,0.00019304105989798184,1.016648912504747,0.18517844321348906,10540.577978405741
13497,K2Bi8Se5S8,550,-0.0002555449483941865,0.4276855486363718,0.3530795172805392,4252.325403879327
5984,Yb13.6La0.4MnSb11,550,0.00011131291304569544,0.6974023057847033,0.3028688823280629,25413.51994170093
5991,YbCd0.4Zn1.6Sb2,550,9.203672365143848e-05,2.066601189733692,0.3569809226085517,140316.30038026095
11955,NbCoSn,550,-0.00015541178242358018,8.581189770023004,0.0821296330502236,59608.765061642276
16445,(Zn0.985Cd0.015)4Sb3,550,0.00017772264416534623,0.6360737992969041,0.8965203397405929,32666.2990652018
13385,Cu2MgSnSe4,550,0.00030775545535677366,1.4072434635101898,0.12025633253987915,2717.0126964189403
13257,Cu2ZnGa0.03Sn0.97Se4,550,0.00021012498205512768,1.5201376694649538,0.15224606315338082,7637.414133621116
16658,AgPb18Sb2Te20,550,-0.00018228594219062356,1.0751366842824301,0.7400697600850851,36007.63738434152
10235,Fe0.90Cr0.10Si2,550,0.00028103809684969255,12.558373006032117,0.01895793367362876,5480.640259644468
10261,Hf0.6Zr0.4NiSn0.98Sb0.02,550,-0.00013985980374097454,4.363589344175713,0.4797321459202039,192251.7887748438
10259,HfNiSn0.98Sb0.02,550,-0.00010798437069488383,6.966453781272591,0.2274717618954422,223564.83099203635
16655,AgPb18SbTe20,550,-0.0002929977353854353,0.9761417970375434,0.5775843647899894,11186.375392065835
1338,Si80Ge18Sb2,550,-0.0003711709775697853,4.522810334307259,0.2625359737278261,15170.321220462649
5992,YbZn2Sb2,550,8.426144920010501e-05,2.8017298614053168,0.24153253292160465,149691.26804002546
16534,Zn3.91Cd0.04Sb3,550,0.0001850463030314853,0.6892699326106501,0.9974195168359564,35819.382923227146
13266,Ca0.84Ce0.16Ag0.9Sb,550,9.450813667579824e-05,0.7936785944319565,0.30157776201137143,48106.01445623289
15209,(Ag0.01PbTe)0.945(Ag2Te)0.055,550,-0.00026562453455666337,0.9836395499059792,0.7297200569614348,18012.01266587999
10258,Hf0.5Zr0.5NiSn0.98Sb0.02,550,-0.00011531270154443172,3.382781580073601,0.2571449841323541,119792.39010306839
10229,Fe0.95Co0.05Si2,550,-0.0001831662801137213,3.23920917497562,0.069344285917699,12172.952677308249
13259,Cu2ZnGa0.07Sn0.93Se4,550,0.00016267862712631814,1.600090721770508,0.15751940037218926,13918.619881724831
8186,FeSi2.1,550,0.00024363740049429574,7.1462243742338405,0.01668137739620201,3651.3877314701617
10896,Fe2VTa0.08Al0.92,550,-0.00012113627332084358,12.391968940055868,0.2001676597867294,354810.5575842375
16507,Zn4Sb3,550,0.00017218850954826332,0.7998429091902073,0.3352327401753997,13917.391649163723
8382,Mg2Si,550,-0.0004791495010837113,6.13341156161505,0.03126749481712679,1306.9758172476086
8187,FeSi2.3,550,0.00023578228151417265,8.427186473530304,0.013655830258023744,3763.706011809034
16531,Zn4(Sb0.995Te0.005)3,550,0.00017126685467959272,0.7530874690788127,0.8944324635186253,36971.561359003455
1339,Si80Ge18Sb2,550,-0.0003867260612319312,2.947028438179397,0.3301490605415649,11303.827943599883
5986,YbCd2Sb2,550,0.00018160046243496404,1.3280653893787555,0.5477547379464967,35735.474310105026
16446,Zn4Sb3,550,0.00014675560288190682,1.1439153547654022,0.5501997240204801,53321.370989360345
16536,Zn4.01Cd0.04Sb3,550,0.0001607092896668775,0.7439442293628976,0.8851026694488446,45587.92260715622
16646,Zn4Sb2.92Te0.08,550,0.00017272235466841266,0.6838590873563128,0.7458541127364638,28687.552246927837
10256,Hf0.75Zr0.25NiSn0.98Sb0.02 ,550,-0.00012114459329121626,3.2693538683670407,0.2534281980397102,101217.53919994847
16644,Zn4Sb2.96Te0.04,550,0.00015634976290174055,0.7121388953270106,0.6962679818765003,35909.696908353064
16442, (Zn0.99Cd0.01)4Sb3 ,550,0.0001814676917018096,0.6769519743320563,0.9190813561864258,34048.073008866486
16645,Zn4Sb2.94Te0.06,550,0.00016301824010192246,0.7252710726801811,0.6717430585911216,30141.304787986504
5023,Co3FeSb12,550,0.000101321410298063,2.826416845735498,0.11672381338215634,52986.41098884218
16509,"Zn3.75In0.05Sb3,",550,0.00020482236675251278,0.6518366662020165,0.9389743879984708,25007.342600537886
5995,Eu11Cd6Sb12,550,0.0001413431348226868,0.6969680129333988,0.16117927034358287,9376.901664449157
16532,Zn4(Sb0.98Te0.02)3,550,0.00015225892098560845,0.7681044613121336,0.8075800643639698,41712.838496108285
9449,Pb3Bi2S6,550,-0.00013401074938784686,0.7687683361497188,0.14789145918154195,11747.043931609682
10257,Hf0.6Zr0.4NiSn0.98Sb0.02,550,-0.00011967826043894184,4.065175138451916,0.3118241550397521,153677.24736144868
13264,Cu2.3Zn0.7Ga0.12Sn0.88Se4,550,7.59132176223474e-05,2.0079288250560285,0.12723143238042708,76133.02229417015
10255,HfNiSn0.98Sb0.02,550,-0.00011247913880638382,4.733152460280838,0.17882553659984998,115520.83115709574
10263,Hf0.6Zr0.4NiSn0.98Sb0.02,550,-0.00013433611548121534,4.4049715796841005,0.4708329011758734,195471.67560205035
11938,LaPdBi,550,6.129017524855135e-05,5.4820377574381975,0.07233611509930479,190323.23299805558
15210,(Ag0.02PbTe)0.945(Ag2Te)0.055,550,-0.0002721925852162621,0.9366296932045668,0.7714988390131421,17900.42174279496
16537,Zn4.06Cd0.04Sb3,550,0.00015497208192136874,0.7778130364482887,0.7930257545645591,46230.84351652874
10219,Fe0.95Cr0.05Si1.946Ge0.054,550,0.00020321636594594584,7.651241634882107,0.022857608512612246,7699.856951424512
1911,Al6Re4.7Si4,600,-1.5358761364169665e-05,10.395674987091027,0.00816382166450112,599628.9145437459
10789,Ba0.7K0.3Cu2Se2,600,7.349836156597885e-05,2.2360213224973022,0.18698447155581085,127407.8207964492
1881,CrSi2,600,0.00015472288097451682,4.523864365207032,0.2490055152612749,78425.66402501558
14965,Ag9TlTe5.05,600,0.00029556431696663003,0.22940735795493425,0.7178250254094943,2928.2907462145595