sampleid,composition,Temperature,Seebeck coefficient,Thermal conductivity,ZT,Electrical conductivity
8382,Mg2Si,350,-0.0006435092524434626,7.9160160114244915,0.0164011544634474,911.0888937964239
5148,Sr0.3Yb0.1,350,-0.00012003679318417496,4.167087814642708,0.18762122128508668,162417.83996484068
5147,Sr0.3Yb0.2,350,-0.00010743122132999412,3.9549379718783633,0.2330111516496572,246547.52438132386
6335,Yb0.4Ca0.6Cd2Sb2,350,0.0001880490739183773,1.2392027291040555,0.2026004478666108,21238.666619079504
5161,Sn0.25Co4Sb11.625Te0.375,350,-0.00017191666233211094,4.563071231637024,0.2297976477567653,102391.6313085024
6018,Eu11Cd4.5Zn1.5Sb12,350,0.00014578888256032608,0.8314079360474015,0.18266138785440275,21091.151315322233
5160,Co4Sb11.625Te0.375,350,-0.00014876695774883496,1.9134954751738864,0.3370074156140568,83503.45373899216
9694,Ga0.07SnBi1.93Te4,350,9.38997225859956e-05,0.7411198770241281,0.21373884683402208,60279.84794992362
6016,Eu11Cd6Sb12,350,0.00013333049855328278,0.7521117077586426,0.114045460540474,12526.32256258434
6017,Eu11Cd5ZnSb12,350,6.023909876842618e-05,0.9518515540387524,0.049384910406444785,36548.722768285515
9693,Ga0.05SnBi1.95Te4,350,8.125556166714317e-05,1.2419244917374672,0.1564310384220775,100066.74499668418
6020,Eu11Zn6Sb12,350,0.00013631336074341384,0.9130290269409836,0.08929738219478651,13593.969372203115
1665,Bi2Te3,350,-0.00016341893584963588,0.4094781066827888,0.2376356174837461,10410.448028157944
9683,Ga0.07Sn0.93Bi2Te4,350,0.0001051829713787522,0.7519962987997486,0.23596101073572476,50533.109357940906
1666,Bi2Te3,350,-0.00015502012340426127,0.5293893856738308,0.5924220962098751,37287.41505478364
1668,Bi2Te3,350,-0.00012994783091308359,0.8389821732902973,0.4792389637321733,68029.72881804327
1669,Bi2Te3,350,-0.00012474763926247513,1.1400315172830782,0.3648944225184767,76375.02533433346
9681,Ga0.03Sn0.97Bi2Te4,350,9.940448744160132e-05,0.8008380529289872,0.24314771543820296,63677.87684678575
9690,In0.07SnBi1.93Te4,350,0.00011450806703891211,0.8035995757473522,0.1758482230145655,32810.421789397034
6019,Eu11Cd1.6Zn4.4Sb12,350,8.410868784838645e-05,0.9227654312671888,0.09672867662201397,32457.28238840293
9688,In0.03SnBi1.97Te4,350,0.00011591150939742834,0.6782786515886847,0.2652890574210014,40178.26840919636
5983,Nd0.7Yb0.3Fe3CoSb12,350,0.00011978466656620871,1.8038637158637836,0.3037288555515192,101533.10583680043
5982,Nd0.6Yb0.4Fe3CoSb12,350,0.00011743526423734807,1.750483682176083,0.3524840445191875,120851.12277526615
5978,Nd0.3Yb0.7Fe3CoSb12,350,8.668235671770123e-05,2.2012684609180884,0.20830244963315944,147563.1807026961
5979,Nd0.3Yb0.7Fe3CoSb12,350,0.00010397031667689633,1.7992089736789405,0.3034141658250413,139738.79656726148
1344,Si0.8Ge0.2B0.016 ,350,0.00016336748387195803,2.6049506449007653,0.1549427457289965,43208.726081306784
1345,Si0.8Ge0.2B0.016 (CrSi2)0.091,350,0.00023434853340374712,2.9419743548329538,0.15942705061118784,24401.041869587487
1352,Si83.75Ge16.25P1.35,350,-0.00010559921974700072,3.9623548383363967,0.13255986751980686,134578.58680218336
5980,Nd0.4Yb0.6Fe3CoSb12,350,0.00010875572670332716,1.78626538120357,0.3234208193039745,136337.25929988065
1349,Si91.25Ge8.75P0.45,350,-0.00012445248204278556,5.490142690955883,0.1121953438727228,113627.45950546065
5981,Ns0.5Yb0.5Fe3CoSb12,350,0.00011480584056200071,1.7570406777784655,0.3321004471268385,121988.96045122086
1351,Si86.25Ge13.75P1.05,350,-9.951106016392288e-05,4.3689273620770415,0.12055537268882008,151967.47360409927
5142,Sr0.21Co3.92Ni0.08Sb12,350,-0.00012287096379384917,4.367331029434908,0.20686381248843927,179399.74997858438
5233,La0.3FeCo3Sb12,350,9.447311782775416e-05,2.6867952815226936,0.05328231095256662,40911.41053980184
5232,La0.6Fe2Co2Sb12,350,0.00014663311479651858,1.823056156176827,0.2197126777884873,47512.974756340096
5231,La0.9Fe3CoSb12,350,0.00011304088017432028,2.295790745590556,0.22616365348708745,109320.30072966439
6347,Ca0.99Na0.01Zn2P2,350,0.00014281410891161874,2.7055771518104517,3.3443294800262763e-06,1.2675313413246336
9356,Mg2Si0.9Sb0.1,350,-8.835472520371396e-05,2.8208009330232096,0.06229918953922859,67066.6701193595
5310,CoSb3,350,0.00011051029404779597,5.3081500843943035,0.1302635599718512,161768.00263485132
6350,CaMnZnP2,350,0.00014684055616291146,2.0340162320581143,3.2730701804060226e-05,8.821646403105007
5309,CoSb3,350,0.00013626316128899563,4.846074701179597,0.2947264112577345,219777.98909289995
9355,Bi0.5Sb1.5Te3,350,0.0002478317011366335,0.7858075931420131,0.4980110836912871,18960.27216427657
6339,Yb1Cd2Sb2,350,0.00013090543525661665,1.8151909948529992,0.1273185269769529,43151.83552804333
6338,Yb0.8Ca0.2Cd2Sb2,350,0.00014840439543627808,1.406952903000061,0.17007501442295575,32088.744880800532
6337,Yb0.6Ca0.4Cd2Sb2,350,0.00017100389379352945,1.23817151547009,0.2269401808533951,28946.298993001812
6336,Yb0.5Ca0.5Cd2Sb2,350,0.00016948822891014895,1.1758034670798383,0.20481953901383787,26094.68367396577
9359,Mg2Si,350,-0.00029422188898928914,5.945767050534867,0.010425284527093131,1683.243251663831
5223,In0.3Co4Sb12,350,-0.00017221325409540238,3.1662588947037564,0.4231794790339156,127543.81992647535
5997,Eu11Cd6Sb10As2,350,8.834461064211381e-05,0.7261866274567337,0.04248929841844791,9796.259260502076
6351,CaMnZn0.8Cu0.2P2,350,3.141232476603332e-05,2.5947131409349566,9.819077350934244e-05,737.7204634804101
5995,Eu11Cd6Sb12,350,0.00013208363950430226,0.7613620485579838,0.09745804961569812,11921.536951762442
5230,LaFe4Sb12,350,8.771185822273228e-05,3.104454290268204,0.17303132023375564,191315.4313070487
5311,CoSb3,350,0.00014161803254812206,5.16691004389071,0.2399021953173552,176587.50284691827
5991,YbCd0.4Zn1.6Sb2,350,5.296152249051469e-05,2.6032900188012515,0.06448951427266009,184353.5336708763
1426,Bi2Te2.90,350,-0.0001449840236394365,0.6539647570855891,0.4369704468619544,42210.450450450466
1427,(Bi 2Te3)9.02(Bi2Se3)0.98,350,-0.00018506631595447564,0.651074647195486,0.5659805565699693,31247.962774693067
1428,(Bi2Te3)8.54(Bi2Se3)1.46,350,-0.00021123841734392682,0.6645209571609172,0.5768404098193499,25137.63469675599
1429,(Bi2Te3)8(Bi2Se3)2,350,-0.00020568828971863652,0.582869157980177,0.491984218608284,19779.69461976057
5987,YbCd1.6Zn0.4Sb2,350,0.00011055220021068257,1.714973683893898,0.2416007951585065,103604.36162784895
1430,Bi2Se2.83,350,-7.220302451862801e-05,0.5134393060709499,0.08556115875716591,23327.742559465638
4615,La0.3Co3.68Ni0.32Sb11.84Te0.16,350,-0.00013748955614648333,2.154385976874334,0.2461993694767195,80273.08278125392
4616,La0.3Co3.68Ni0.32Sb11.84Te0.16,350,-0.00014858222606250554,1.7970452248235156,0.3599363005442625,81131.63485302124
2305,Ba8Ga16.4Ge27.9,350,9.631478878185201e-05,1.0503991624232274,0.15604743330299795,47984.75228253925
9604,Mg2Si0.6Sn0.4,350,-0.00011936291068373877,3.6864528243017554,0.26694424822898544,198161.8029697052
4619,Co0.92Ni0.08Sb2.96Te0.04,350,-0.00011986188152162373,4.06862985609167,0.11548643581490566,97354.47631167897
9482,(CoGe2)0.15(GeTe)12Sb2Te3,350,0.0001755364584822909,1.4117124052468393,0.2729350135254121,36269.95709322203
9607,Mg2Si0.6Sn0.4,350,-0.00010465249181722296,3.3243879463289767,0.23423142243124054,198723.49872889192
4618,La0.3Co3.68Ni0.32Sb11.84Te0.16,350,-0.00014097987411157062,2.062927473739529,0.2161192405618123,66623.28585656964
9606,Mg2Si0.6Sn0.4,350,-0.00011163841901063506,3.2551267304676297,0.22707687317240244,195909.1143106326
6261,Sr3Ga0.98Zn0.02Sb3,350,0.0002010513450425631,0.9476225861754168,0.09501989731580136,5576.348374435559
9605,Mg2Si0.6Sn0.4,350,-0.00012822145502697864,4.152611340429122,0.2755302473540092,190761.2324802524
4617,La0.3Co3.68Ni0.32Sb11.84Te0.16,350,-0.00016306478319768995,1.962270486622386,0.3184609593534597,68920.87995908708
4520,CoSb2.7Te0.3,350,-8.076533937664105e-05,4.381884936458011,0.07996545511412914,163924.81917919716
4519,CoSb2.8Te0.2,350,-9.46521397881782e-05,4.230569769330558,0.1091169396159838,168259.758187589
4518,CoSb2.9Te0.1,350,-0.00010552151140142629,4.904574370638741,0.09367522717837944,136847.20817721053
9489,(GeTe)17Sb2Te3,350,0.00017652817225252308,1.3933670130504097,0.4105216539089209,59530.91266691857
6230,Yb14MnSb11,350,6.0354204367120434e-05,0.9431277174045984,0.06716604131480075,49686.35730374456
6231,Yb14MnSb11,350,7.194454499393979e-05,0.8905273061984162,0.0783962374094148,38537.06852683216
1446,Bi0.4Sb1.6Te3,350,0.00022230406713172142,0.8580526987626819,0.8983060644036279,45906.83131101667
4515,Co0.9Ni0.1Sb3,350,-9.335056261855344e-05,5.157019760682871,0.049093429516821004,67676.0760327307
6260,Sr3GaSb3,350,0.0002660218909141372,0.9150146225242533,0.06585297259216336,2490.091527858089
9487,(CoGe2)0.2(GeTe)17Sb2Te3,350,0.00017400356835225566,1.3937643570867304,0.3889054894850941,59723.357199012724
1932,(CoSi)0.95(SiO2)0.05,350,-8.351064933530409e-05,9.76751230357324,0.08544710240263903,292182.86638266325
9611,Mg2Si0.4Sn0.6,350,-0.00016512864120091805,2.9936801030293383,0.464644541141032,134833.17918067478
6270,YbCd1.2Mn0.8Sb2,350,0.00013612135662452462,0.9111533015528692,0.03544178521517519,5030.226351094392
8184,FeSi1.9,350,0.0001811500905446181,6.938497573583075,0.0011745123968326821,709.5416451049713
6269,YbCd1.8Mn0.2Sb2,350,0.00017787440067278817,0.8851175904392967,0.23568607427972146,19371.41014926373
1933,(CoSi)0.9(SiO2)0.1,350,-8.404188119673188e-05,6.251434194210103,0.07549311814860273,200826.08216095442
4712,Ca0.18Co3.94Ni0.06Sb12.40,350,-0.00012244529311409948,5.254053376177686,0.13101237755895428,155871.7985555281
9609,Mg2Si0.6Sn0.4,350,-0.00010011531903257076,4.408520728619481,0.16678966448261476,209600.78583474323
1930,CoSi,350,-8.353258275779505e-05,14.87359482459722,0.10212676568166444,548978.1222646133
4711,Ca0.18Co3.97Ni0.03Sb12.40,350,-0.00012704958061404698,5.01357429647055,0.20671662611581934,175180.81118110698
9612,Mg2Si0.4Sn0.6,350,-0.00015804972925177383,2.7708155704430117,0.4987023077811013,141748.47354540328
1931,(CoSi)0.975(SiO2)0.025,350,-9.509287060582988e-05,13.592440337440618,0.14316600628076945,560512.7397355771
9615,Mg2Si0.4Sn0.6,350,-0.00013193766332572618,3.2630215281885726,0.3948401059629625,208914.12276031237
6273,YbCd1.6Mn0.4Sb2,350,0.0001962133809092548,0.9256014002248752,0.18933981392153149,13138.727809421094
9614,Mg2Si0.4Sn0.6,350,-0.00013899452703023866,3.4096329739826383,0.3930040540579636,191911.850885376
6272,YbCd1.9Mn0.1Sb2,350,0.00014891447365553124,1.0083172357951669,0.20348869531225836,27226.344419770958
9613,Mg2Si0.4Sn0.6,350,-0.00015318036470208466,2.7598432272536995,0.4112683256740368,132869.55267231914
4710,Ca0.15Co3.98Ni0.02Sb11.80,350,-0.00012557280736770184,4.268050436964293,0.13815804575139015,99076.35265323221
2055,Fe0.92Mn0.08Si2.3,350,0.0002724610090086162,13.952336179471367,0.0014015376910999778,752.6186014584247
6264,YbCd2Sb2,350,0.00013381415936251787,1.9320156297099251,0.1452103864792204,45920.959174767784
2056,Fe0.92Mn0.08Si2.5,350,0.0002760201872653084,14.644023762032957,0.00133274041303542,731.9075975033156
2293,Ba24Ge100,350,-2.4308077854504292e-05,2.9854502175443085,0.012659756312651151,199546.57941439445
2054,Fe0.92Mn0.08Si2.1,350,0.00029990318130791466,8.763867597058457,0.003142753224492337,874.9352189426863
2053,Fe0.92Mn0.08Si2.0,350,0.00030193765843856057,9.452809069878633,0.0019395291356938413,574.585396882223
2052,Fe0.92Mn0.08Si1.9,350,0.0002234912755380209,9.345299215043452,0.0023238004801512647,1242.2324088227142
9608,Mg2Si0.6Sn0.4,350,-0.00010290744390367133,3.256508200256832,0.2219968660515032,203507.03431126464
6268,YbCd1.95Mn0.05Sb2,350,0.00014705931754695794,1.7611534872545436,0.1791401308712089,40400.98392648237
4709,Ca0.20Co4Sb12.46,350,-0.00011593197747819517,3.827881516851004,0.039200969079807024,37863.563623381735
6266,YbCd1.4Mn0.6Sb2,350,0.00020641555329490834,0.8436824781366079,0.1532898019856539,8585.89273084256
4480,Cey(Fe3.5Ru0.5)4Sb12,350,7.650838074639743e-05,2.643227957096695,0.1531220230619718,207891.34748090504
4479,Cey(Fe3.6Ru0.4)4Sb12,350,8.19967869687816e-05,2.4733823382543534,0.18779075858488445,206151.3824566855
4478,Cey(Fe3.7Ru0.3)4Sb12,350,9.025587202135692e-05,2.347473028682038,0.24121136764129206,201034.7902046629
4477,Cey(Fe3.8Ru0.2)4Sb12,350,9.29564194029827e-05,2.470855575155755,0.2505630013378892,208569.7690042636
4476,Cey(Fe3.875Ru0.125)4Sb12,350,9.295969734229758e-05,2.5087616126723358,0.2406825594955899,204202.03034330075
4475,Cey(Fe3.925Ru0.075)4Sb12,350,9.590384389690618e-05,2.5821466667145057,0.2566429501961862,204270.4225437459
4348,Yb0.1Co4Sb12,350,-0.00019763455133542984,4.140901628631836,0.2025198007107172,67835.97871988728
6242,Sr3AlSb3,350,0.00038868993660751177,0.931010223471924,0.007644734676998274,134.59912277481982
4349,Yb0.15Co4Sb12,350,-0.000197071566974796,3.4996737741471864,0.3501962291724043,105680.27640801627
1448,Bi2Te2.1Se0.9,350,-0.00017644421396774767,0.7544778486343086,0.3906237502972697,26951.713257166866
1449,Bi2Te2.1Se0.9,350,-0.00017880237759231656,1.129816740086375,0.45581965700768895,46369.777890150915
4492,Cu3Sn0.15Sb0.85S4,350,8.394704817892786e-05,2.8959305205741117,0.03290079676706327,36382.77431642994
4491,Cu3Sn0.1Sb0.9S4,350,8.767283551996857e-05,3.3121731811853303,0.013416833030091495,14300.893182015216
4490,Cu3Sn0.05Sb0.95S4,350,0.0002323368371382687,3.0051758808141447,0.024929552894905657,3720.343760864541
1447,Bi0.4Sb1.6Te3,350,0.00021762507543947023,1.084739611524882,0.9336309791757852,62968.49289433352
4489,Cu3Sb1S4,350,0.0005389926633179565,3.265019493458205,0.014740329678491013,441.19249201078287
4482,CeyFe4Sb12,350,9.524922370935206e-05,2.6636507282860564,0.2468239382346807,201199.21327575773
4721,Yb0.3Co4Sb12,350,-0.00014881188295501324,2.8412560088627123,0.5096530872023722,175116.4701689056
5114,Co0.975Ni0.025Sb3,350,-0.00017503301193769243,7.378471812043399,0.0251113595061593,16395.489772834593
9419,Cr0.01Bi1.99Te3,350,0.00015964826945172268,1.6891109946826652,0.5216729326247277,97113.90958013492
9420,Cr0.03Bi1.97Te3,350,0.0001894014860512677,2.2830439667232376,0.2763038496390279,48693.01354112692
5115,Co0.95Ni0.05Sb3,350,-0.00010654926950153384,6.665700694839604,0.024924563366401583,42131.57096268876
1837,MnGe0.0175Si1.7325,350,0.00013400469729863402,2.4044396040214395,0.164975316390254,63113.86174816263
1838,MnGe0.02625Si1.72375,350,0.00013371898164845557,2.44405372619538,0.17789148867442786,69472.31207017733
9439,Pb5Bi6Se14,350,-0.00011108734425628326,0.5413954252033819,0.1017893878204214,13367.017085622596
1839,MnGe0.035Si1.715,350,0.00012868237564738074,2.468631648088378,0.1674727166167274,71333.60511541605
9429,,350,-8.037944438832307e-05,0.6201822621007367,0.19400994846823705,53017.209674533915
1835,MnSi1.75,350,0.00013375409857768468,2.3996909238397808,0.14284964909629433,54745.98131027327
1836,MnGe0.00875Si1.74125,350,0.00013257483633109077,2.3490602721277996,0.16016177665831416,61159.34057389986
5132,Co0.95Mn0.05Sb3,350,0.00012998532208424428,4.8351017933757445,0.05303330233654338,43360.707799666
5130,Co0.98Mn0.02Sb3,350,0.00013086192986305777,2.381770879832093,0.06609271438735513,24422.52524316236
5129,Co0.99Mn0.01Sb3,350,0.00013081731412582188,2.9318135559052645,0.06003309440905057,26291.6149483972
5141,Sr0.23Co3.95Ni0.05Sb12,350,-0.00011495589766367312,4.411524528493178,0.20174244663998814,210827.61519319896
5140,Sr0.19Co3.98Ni0.02Sb12,350,-0.0001423713818643397,4.414177572392245,0.237712602600906,148384.57471337594
5139,Sr0.22Co4Sb12,350,-0.0001349319759712966,4.736764495832822,0.1990555185462357,153163.11663725323
6320,Ca16Sb11,350,7.377207478283106e-07,2.075761597440637,1.3398708054707168e-07,1460.1193532441996
5117,Co0.9Ni0.1Sb3,350,-5.373831267832927e-05,9.428500559637893,0.007412408667983283,72885.80656444398
9417,Cr0.01Bi2Te3,350,0.00018971442967470023,1.8923458917437204,0.6313691429281634,95943.96558686557
9418,Cr0.03Bi2Te3,350,0.0001556719634454716,2.249900461986201,0.4615486851399769,122606.30803183568
5116,Co0.925Ni0.075Sb3,350,-9.204233818698522e-05,6.6856319209891675,0.028466685524155207,60501.97977634867
5128,CoSb3,350,0.0001390667665657464,4.0525910215297145,0.05302594029557106,29046.751913971093
4722,Yb0.35Co4Sb12,350,-0.00014180884282294788,2.75674382158854,0.5189703431413156,190977.50599969144
1904,CrSi2,350,0.00012938220091572442,9.630510577311247,0.06841128580544686,112450.1274800372
4838,Yb0.6Co4Sb12,350,-9.917471383621037e-05,3.1752685218553616,0.23496875176916845,225875.9131933254
4837,Yb0.6Co4Sb12,350,-9.459313095273464e-05,3.4108713754016606,0.26642133026314085,299649.75070186914
4836,Yb0.6Co4Sb12,350,-9.715211469731845e-05,3.2144270623448348,0.2962391616939721,299353.0522413178
4835,Yb0.6Co4Sb12,350,-9.705814635858564e-05,3.3039687976718306,0.2842496272184739,278920.36170250806
5025,Sn0.2Co3FeSb12,350,8.932178204041331e-05,1.5411056832777887,0.07862655412190395,43118.511810355456
5024,Sn0.1Co3FeSb12,350,6.781739328722599e-05,2.088561683313968,0.03413368698822933,49705.21296499194
1925,CrSi1.98,350,0.00012687331582893408,12.136840907556744,0.034350326872561364,73999.3505728468
1926,CrSi1.96,350,0.00012869757564106128,11.735376231602402,0.036672105205049266,74237.62733174747
1927,CrSi1.94,350,0.00011500858300402043,11.917956063102224,0.03477733604461989,89530.19744002273
1928,CrSi1.92,350,0.00010689506321853432,12.556865816844544,0.03146718668514715,98799.74616237632
4725,YbCo4Sb12,350,-6.962212139237353e-05,4.8893806559111805,0.13199781565675825,366785.8285934232
4724,Yb0.5Co4Sb12,350,-0.00011812146872771032,2.925742451072832,0.3890734790218909,227348.23090189797
4723,Yb0.4Co4Sb12,350,-0.00012854099431328802,2.9279015061745466,0.4321352935038078,211255.84997821835
1929,CrSi1.9,350,0.00010211872430306964,12.838173443534375,0.03318215991965174,116715.64777833119
4834,Ba0.19Eu0.23Co4Sb12.03,350,-8.961264414818811e-05,4.370996852604066,0.2720730540458506,435606.19663650135
4833,Ba0.14Eu0.13Ci4Sb12.05,350,-0.00011583417588010526,4.107229915747683,0.3512988831947808,311810.47987785825
4832,Ba0.24Yb0.12Co4SB11.85,350,-0.00011760733706630872,3.6027746426590936,0.3760293975700265,277424.7917723713
4831,Ba0.15Yb0.09Co4Sb11.86,350,-0.0001313806821048443,3.385153503884633,0.3694209786272272,211605.55237988054
4830,Yb0.14Co4Sb12.05,350,-0.00016981624622306655,3.3085796699470134,0.4546819500089623,143681.06047457413
4829,Ba0.23Co4Sb12.22,350,-0.00012646147779143334,4.374392048014733,0.3143396332895374,249375.60557304
8187,FeSi2.3,350,0.00025244304737208454,10.242716312528657,0.0005601069365678246,257.2119980115276
1873,CoSi0.98Ge0.02,350,-8.416042316313429e-05,11.875881849093387,0.12104306284927085,579858.3392915914
8188,FeSi2.5,350,0.0002960988747292689,12.852784905502894,0.0001496469074274305,62.679197522141294
9449,Pb3Bi2S6,350,-6.554111593719066e-05,0.8859914238199784,0.02992576447727727,18783.998453004468
5094,CoSb3,350,-0.00019355324441671783,0.4670616236335118,1.190663873117094e-05,0.42412552071272025
5093,CoSb3,350,-0.00013571111006907544,0.5678170976488967,0.0009096507927851421,80.1280027455973
1868,Al27.5Mn31Cr2Si39.5,350,-0.0001144336644659139,4.003954142923483,0.07101251137793077,62036.64626554992
1869,Al27.5Mn29W3Si39.5,350,-0.00012195727978011152,2.1478568692655102,0.14773399268386495,60954.008330534816
5092,CoSb3,350,-0.00044359184517621565,8.464431270153668,0.03181012941100088,3909.56166164849
1870,Al27.5Mn27.5Ta2.5Fe3Si39.5,350,-9.152524516468612e-05,2.678061534572649,0.07743862265192729,70734.01748766344
1871,CoSi,350,-8.05222180540888e-05,13.045309013690028,0.0943989368212421,542652.7033552958
1872,CoSi0.995B0.005,350,-8.479198664912729e-05,13.50729850316702,0.1278180145421551,686092.8586502387
9459,PbBi2S4,350,-0.00016629094686973256,0.6147568431488041,0.12667904794482204,7230.698371277739
1881,CrSi2,350,8.682256631547744e-05,8.104925406075765,0.03864574549882482,118718.23466400676
5027,Sn0.4Co3FeSb12,350,9.174977541447393e-05,1.3770477597605986,0.08872943714945787,41864.14997667803
8185,FeSi2.0,350,0.0002865159224550428,8.019162158862231,0.0012422403226986702,346.71214088858045