sampleid,composition,Temperature,Seebeck coefficient,Thermal conductivity,ZT,Electrical conductivity
9679,In0.07Sn0.93Bi2Te4,550,6.371475958701287e-05,0.8452431727165027,0.0932258137842148,35062.338757119134
16218,Tl7.95Sn2.05Te6,550,0.00013818065202016408,0.6837208636959275,0.4626934134567238,28914.67899475528
13888,Mo3Sb4.8Te2.2,550,0.0001036406203353972,3.941203812196856,0.1282372394070115,72083.95572807119
2384,Ba8Cu4.5Si6Ge35.5,550,-7.001011023906659e-05,1.9785644468767252,0.12411052957598125,95044.58971236137
16217,Tl7.9Sn2.1Te6,550,0.00012862790416234956,0.6398829609235708,0.4073514279370691,26660.73489455772
9671,SnBi4Te7,550,6.416051060320757e-05,1.1898724960651967,0.06721530703307027,30775.55726310929
16211,Tl8.3Sn1.7Te6,550,7.601922527219301e-05,1.0980128925637465,0.21011501180010167,75124.14497022494
16215,Tl8Sn2Te6,550,0.0001020103679210612,0.6604052458738668,0.2452913192732131,29441.778021863287
9681,Ga0.03Sn0.97Bi2Te4,550,7.773548594498022e-05,1.3874722517623248,0.14541811734915586,54626.60905385887
5146,Sr0.3Yb0.3,550,-0.0001249263353306799,3.635898946838791,0.5590784084666195,231642.13532555482
13955,CuFeGeSe4,550,0.00022935402392638217,1.3430091308377603,0.10781169728537948,5004.600684220874
5148,Sr0.3Yb0.1,550,-0.00015186346564913114,3.708562030419984,0.4746047730962459,131140.44147096007
13954,Cu2Zn0.1Fe0.9GeSe4,550,0.00018860292614908126,1.3805781666422394,0.11403365153828887,8047.009050741682
13953,Cu2Zn0.2Fe0.8GeSe4,550,0.00017811940430036578,1.3290108957793287,0.10405675292800584,7925.262460788125
13952,Cu2Zn0.3Fe0.7GeSe4,550,0.00019566858957359825,1.3132553429223734,0.12852614786755212,8015.594693616982
13951,Cu2Zn0.4Fe0.6GeSe4,550,0.0001989588070397912,1.3009632384726104,0.13095861526385555,7825.463553894863
13950,Cu2Zn0.5Fe0.5GeSe4,550,0.00020738400408934891,1.3269835744285357,0.12266106425762098,6881.119108457194
13972,Cu2ZnGeSe3S,550,0.0003654256279239811,1.1259224999994222,0.02722762698443437,417.404951761519
11311,Cu3Sb0.985Ga0.015Se4,550,0.0002610655975361017,1.021558744076254,0.36556378249329374,9081.905812894829
14511,Cu1.85Ag0.15Sn0.85In0.15Se3,550,0.00011543687318148831,1.213709732162126,0.41425624676328177,55854.32528017722
13971,Cu2ZnGeSe4,550,0.0003073751462756136,1.1827986300019582,0.04135461304974476,941.3141519447687
5979,Nd0.3Yb0.7Fe3CoSb12,550,0.00012683854914504852,1.9530903343981496,0.6010948829519606,125096.51285510846
13927,PbSeTl0.02,550,0.0001454626223461892,0.8463000357678926,0.5880842166738468,37900.319529150984
13925,PbSeTl0.005,550,0.0001935229893529622,0.7977667915137399,0.7087354178623436,23726.314333228198
13940,Cu2Zn0.7Fe0.3GeSe4,550,0.00022944166430803267,1.2740380748448743,0.07993433835651192,3517.29288611439
13938,Cu2Zn0.8Fe0.2GeSe4,550,0.0002111189402963704,1.2863019190102505,0.11222560258176843,5888.6776233616965
13937,Cu2Ze0.9Fe0.1GeSe4,550,0.00028574215268997505,1.3332927598158917,0.09532242662074872,2830.148972780716
13943,Cu2Zn0.6Fe0.4GeSe4,550,0.00025078358091487043,1.3308489892922322,0.07451230810598157,2866.7901745602535
13936,Cu2ZnGeSe4,550,0.00030681211175926287,1.1655721704564677,0.037156300191373066,836.4961437930593
5147,Sr0.3Yb0.2,550,-0.00013754499812002174,3.678845999763682,0.5712197948083262,196208.78608556843
13007,Zr3Ni2.7Cu0.3Sb4,550,-0.00014628460296765624,3.5500612628072727,0.2702460014766798,77881.00878420704
16894,(Zn0.995Pb0.005)4Sb3,550,0.00017029979825285586,0.7575748743870248,0.9381678280672704,44967.602947884196
13006,Cu1.975Sn1.025Se3,550,0.00040066840993987287,1.0519190476181468,0.19686949783055044,2051.772409874031
16895,(Zn0.99Pb0.01)4Sb3,550,0.00016956634222530558,0.7481596514906965,0.8446901523078355,39896.18448026956
13005,Zr3Ni2.9Co0.1Sb4,550,0.0001741961696575027,2.2765759156982472,0.3849398071568175,52747.311670676194
16896,(Zn0.985Pb0.015)4Sb3,550,0.00017222006962744408,0.7365901879365581,0.8552094211840362,38779.02662859026
10182,(FeSi2)0.8(TiB2)0.2,550,-7.027793380249566e-05,7.629175362565002,0.021082028760288942,59209.2200694869
16897,(Zn0.98Pb0.02)4Sb3,550,0.00016378462814914242,0.6479121373824758,0.6957146295755192,30015.674089384946
13004,Cu2.0Sn1.0Se3,550,0.0002243156440304625,1.1611919630723315,0.13137701830969906,4677.5523004470315
6281,Yb13CaMnSb11,550,9.354488008591964e-05,0.8190220403833423,0.22410283614178214,33077.09049869537
522,MnSi1.73,550,0.00017866115269805468,2.2656599735784493,0.17761496805872673,22921.938420403818
13002,Cu2.025Sn0.975Se3,550,7.480215327674616e-05,1.7942354297639156,0.11536061923200568,54578.42018172879
13001,Cu2.05Sn0.95Se3,550,8.065615190424225e-05,1.8022471128623008,0.13090822669743546,57470.16350752828
15127,Tl8.67Sn0.50Bi0.83Te6,550,0.00017745276374469808,0.5378526288854515,0.6458084213134301,19262.478923361443
13000,Cu2.10Sn0.90Se3,550,6.843628778878383e-05,2.8701712337229512,0.15143373118493045,151676.65156440815
16893,Zn4Sb3,550,0.00016278189433775427,0.7121399985552341,0.7844510250503367,38686.94066320554
6279,Yb14MnSb11,550,9.225090325911387e-05,1.0178912742627926,0.18002287945829926,34346.54724507419
6269,YbCd1.8Mn0.2Sb2,550,0.0002260378468921689,0.6433482010188558,0.6979511481986037,15738.129202629905
6270,YbCd1.2Mn0.8Sb2,550,0.00016850529378027468,0.6517995056075107,0.09452778709053332,3988.344571098505
6272,YbCd1.9Mn0.1Sb2,550,0.00019587382598424105,0.7052157223031352,0.7394393492717688,24095.05417770658
6273,YbCd1.6Mn0.4Sb2,550,0.0002371315036455171,0.6616618212976728,0.5206876999401415,11233.940078092786
6274,YbCdMnSb2,550,7.727113703770577e-05,1.0242644375107393,0.0187086030914426,4924.885105838476
13012,Hf3Ni2.9Co0.1Sb4,550,0.00015698620527578668,1.7658125664601243,0.3479911945744977,44910.0486171067
524,MnSi1.72Al0.005,550,0.00019548555154067006,2.2570419831176984,0.21207756637680475,22774.15914827278
13011,ZrHf2Ni2.9Co0.1Sb4,550,0.00014191890459939397,1.7060315271791926,0.3163035871590805,47270.9792264904
523,MnSi1.74,550,0.00018514058491443092,2.1449013832334884,0.16895287962481134,19222.3718887342
13010,Zr2HfNi2.9Co0.1Sb4,550,0.00015008737257139174,2.0240324893462067,0.3640807179396033,58726.27560343449
16892,SrZn2Sb2,550,0.0002401484013117191,1.5879918896862921,0.091252909739459,4441.660153322614
13009,Zr3Ni2.9Co0.1Sb4,550,0.00017488758530000422,2.280009834760228,0.3869731496649326,52352.98974825542
15131,Tl8.33Sn1.12Bi0.55Te6,550,0.00013547775177676465,0.5752643720409256,0.5573593413074929,31088.08204300415
10181,Fe0.95Co0.05Si2,550,-0.0001661248691856235,4.254569960001132,0.06654585153177897,18652.82701707048
4724,Yb0.5Co4Sb12,550,-0.000142147146908788,3.1852474328614218,0.6559803108003279,189688.1494755537
12987,Ni0.05Mo3Sb5.3Te1.7,550,9.682293166346417e-05,4.24507510349348,0.17412571350579895,116475.6454669091
16914,AgNa0.01SbTe2,550,0.00027394516342487774,0.5221784426222529,1.0697701708388951,13691.946526928867
10179,(FeSi2)0.825(TiB2)0.175,550,-9.731420470628355e-05,6.52030687100928,0.03167907682440844,39657.505023019046
12986,Mo3Sb5.4Te1.6,550,9.088440902018512e-05,4.0050703427006935,0.1873548864250304,138226.32251850885
16915,Ag0.99Na0.01SbTe2,550,0.00027310756633571305,0.5940996157918138,1.0477365452878602,15195.037508805835
16916,AgNa0.01SbTe2Se0.04,550,0.00024986029062813784,0.6706682596714659,1.0367342380014266,20207.750027512924
12985,Ni0.05Mo3Sb5.4Te1.6,550,9.364647771919756e-05,4.659111696594544,0.17439929558264694,143673.8212415877
4723,Yb0.4Co4Sb12,550,-0.00015324675540758588,3.1158448795485687,0.7411550561912459,177942.06978186886
16917,Ag0.99Na0.01SbTe1.96Se0.04,550,0.00025502637781825866,0.5709396865528987,1.1716536965825584,18732.39214479829
16918,(Ag2Te)54(Sb2Te3)46,550,0.000250202494617332,0.5609486364591689,0.3387238657808808,5511.510353619276
16919,(Ag2Te)52(Sb2Te3)48,550,0.00024972121427533923,0.6151080674369259,1.1544277895399413,20708.81512128602
16920,(Ag2Te)50(Sb2Te3)50,550,0.0002332747689991192,0.5393811030542089,1.4517501884229311,26295.047135009165
12997,Mo2.5Ru0.5Sb7,550,5.5055367029657664e-05,5.159584838912502,0.11655849324542494,337886.75856300857
12996,Cu3Sb0.98Sn0.02Se4,550,0.00019748518510112725,1.5450387965911792,0.6374800732021918,39466.632826040615
12995,Mo2.7Ru0.25Sb7,550,4.3956725460903966e-05,5.531794512317449,0.08504281161484434,391571.9102981196
15125,Tl9Sn0.2Bi0.8Te6,550,0.00014933637323660777,0.8682303753634799,0.4966552824304328,34695.9481802714
12994,Mo3Sb7,550,3.488164804968952e-05,6.088613148050229,0.051275598019034634,448564.73217441404
12991,Cu3SbSe4,550,0.00034280664376110017,1.5320760702158127,0.3760155518730315,8142.0530751604065
12990,Cu3SbSe4,550,0.00033190277928177514,1.5753505731911517,0.3071850527453547,6589.376455321395
4725,YbCo4Sb12,550,-8.986404070000255e-05,5.243140655816874,0.2714769765235708,307970.3684234703
4722,Yb0.35Co4Sb12,550,-0.00016689604278698027,2.89914647377294,0.8529784218208629,159521.40544764738
13013,Zr3Ni2.6Pt0.3Co0.1Sb4,550,0.00016459865442270243,1.9363020533080881,0.4185271213228151,53898.848672563116
16878,Zn4Sb3,550,0.00015962939786327794,1.036939527072363,0.5852147157301602,43190.702252016345
538,Ba24Ga4Ag0Ge96,550,-4.04512105386176e-05,3.091128812234877,0.04871327315967448,175825.12126365714
13036,Mo2.5Ru0.5Sb7,550,5.4474370727182616e-05,5.192276021676457,0.12102703419344132,338501.48679819435
10187,FeAl0.05Si2,550,0.000266706032639549,6.023497662189442,0.04294260190493189,6611.632918326125
13035,Mo2.78Ru0.22Sb7,550,4.3271372727026895e-05,5.554130670521481,0.07874718506336867,390230.54814599577
10087,MnSi1.73,550,0.0001764382775828321,2.5902986450536143,0.1838434229785792,27813.11474208975
13034,Mo3Sb7,550,3.4195905544809494e-05,6.1290980024780675,0.05132184290708905,446455.67543325276
13041,Ca5Al1.95Mn0.05Sb6,550,0.00019042915402961555,1.1484105638383255,0.20080825728597007,9685.126606691807
16860,ZnSb,550,0.0003049282474537574,1.0487992860831448,0.37877240662451983,7147.233752211407
537,Ba24Ga0Ag0Ge100,550,-3.775515621261411e-05,3.465561658954627,0.039161361526736584,186694.08311247212
541,Ba24Ga8Ag2Ge90,550,-5.625869696075784e-05,2.164683713214995,0.0968562962574574,127901.55758021974
540,Ba24Ga4Ag2Ge94,550,-4.876094226512436e-05,2.5169346939008554,0.0783111303713545,149085.05129190895
10190,Fe0.98Co0.02Si2,550,-0.0002176356712386173,6.159085985368947,0.020007249370697196,4730.214167149699
16855,ZnSb ,550,0.00030694375298439836,1.079401503827654,0.33788485844402044,7038.359761273271
13045,Ca4.75Na0.25Al2Sb6,550,0.00017682730348917184,1.0625234950221505,0.30212812407955625,15784.582446238848
13044,Ca5Al1.7Mn0.3Sb6,550,0.000156565631333286,1.1382940704418507,0.16630594554809405,12222.274010584028
539,Ba24Ga4Ag1Ge95,550,-4.548875228378552e-05,2.674168505920672,0.06661560775233044,155954.35806341204
13043,Ca5Al1.8Mn0.2Sb6,550,0.00016337119869883022,1.0471030109943091,0.18676161777568906,12536.914919386621
6260,Sr3GaSb3,550,0.0003012443415425891,0.7971563336381947,0.1934143922477394,2509.2666541884078
10189,Fe0.94Co0.06Si2.00,550,-0.00018156078663738752,3.3101339437651496,0.1141716781580495,17919.514812580936
13042,Ca5Al1.9Mn0.1Sb6,550,0.00017451471974181543,1.0784639264809208,0.19612732071671204,12271.656353285778
10186,Fe0.99Co0.01Si2,550,-0.00029970100128085133,10.29399513731558,0.03256810007495042,6786.366424713028
6266,YbCd1.4Mn0.6Sb2,550,0.00024792876044784317,0.6161052071466478,0.3970168896321801,6920.494623855064
16882,Zn4Sb3,550,0.00018139814401464248,0.6763589811039592,0.8527150328799824,30668.95335806488
13019,Hf3Ni2.7Cu0.3Sb4,550,-0.00012974969097505072,3.3172843649146873,0.2252954085675329,80976.31942330074
10184,(FeSi2)0.745(TiB2)0.255,550,-2.8997440342528707e-05,8.70204764429412,0.0063112050263073646,118754.95213645125
16879,Zn4Sb3,550,0.000161375580005995,0.8201150519696435,0.7036993811597217,39440.95032806513
13018,ZrHf2Ni2.7Cu0.3Sb4,550,-0.00015659409279787195,2.3343806576240653,0.2607392792256532,44690.24460610875
525,MnSi1.74Al0.005,550,0.00020042017894585212,2.2779523722225097,0.2285967557864663,23570.51770922396
13017,Zr2HfNi2.7Cu0.3Sb4,550,-0.000169308534895149,2.6587444534659004,0.4153632883159427,68929.51720062707
16880,Zn4Sb3,550,0.00016839226984868358,0.7899016553923852,0.7485388267542366,36856.771513835636
13015,Zr3Ni1.7Pt1.2Co0.1Sb4,550,0.0001562886329647116,1.9057175019744368,0.4382810858264143,65095.97603353097
6268,YbCd1.95Mn0.05Sb2,550,0.000190675479843329,1.2935155548586574,0.520743359426233,32697.372861096923
16881,Zn4Sb3,550,0.00017900558534205725,0.6990543902581938,0.7923418246545297,30412.8842926984
6264,YbCd2Sb2,550,0.0001758449973082135,1.385170573485157,0.5036696656716875,38810.22521704738
16877,(Zn0.997Pr0.003)4Sb3,550,0.00017163035800165388,1.0065555935642367,0.3647022531945631,22501.380671009723
16876,(Zn0.998Pr0.002)4Sb3,550,0.00017327778013203452,0.7158659233152425,0.5683460365031281,24469.396417226144
13031,Yb0.75Eu0.25Cd2Sb2,550,0.0002212113333603644,1.118482367079532,0.727875941435871,29894.787046473833
13030,YbCd2Sb2,550,0.00024266182001726958,1.2368357702135782,0.5366024872744732,20286.40970507202
13029,EuZn2Sb2,550,0.00015910030726213044,1.6745384150836964,0.6179538735553176,77723.45964587969
13032,Yb0.5Eu0.5Cd2Sb2,550,0.00023374775547731913,1.0497243309316766,0.6173251133766309,21053.976535374142
6262,Sr3Ga0.95Zn0.05Sb3,550,0.000183979754007494,0.8478791438780402,0.32913949149118304,13451.546955725024
16874,Zn4Sb3,550,0.00017269438210334352,0.8069395714037968,0.4523345974304193,22147.998363168837
526,MnSi1.75Al0.005,550,0.00020139259512288484,2.4523057149209313,0.20112331578252307,22109.92883025814
16875,(Zn0.999Pr0.001)4Sb3,550,0.00017129708918226316,0.7179215392459937,0.4784946815578882,21322.240633431193
10185,Fe0.85Cr0.15Si2,550,0.00024224288260784937,13.059473305688453,0.015776702443538928,6383.76888300364
6263,Sr3Ga0.93Zn0.07Sb3,550,0.00016554282923919234,0.8506910270674033,0.35918261404430496,16305.434238804175
16921,(Ag2Te)48(Sb2Te3)52,550,0.00023818791015126073,0.57612915169456,1.2499288645433793,23133.14176123164
10178,Fe0.98Co0.02Si2,550,-0.00024741067017271603,4.9013434323852785,0.031135139825111506,4532.79850315677
10169,Fe0.94Co0.06Si2.00,550,-0.00016994956203373847,3.808663076373284,0.1015452307296099,20359.29902960701
6320,Ca16Sb11,550,7.766129938910532e-06,1.758142487863914,2.042716642176676e-05,1082.6552885790425
12288,Zr0.7Ti0.3NiSn ,550,-0.00022799684101659654,7.196932882440512,0.16790161819834445,38513.69606941175
12289,Zr0.7Ti0.3NiSn,550,-0.00023416128700315958,6.495594866735686,0.2842033827505405,58298.58709129932
12286,ZrNiSn,550,-0.0002845534028469502,10.58103723053051,0.13031235145698328,27446.031547967406
12928,MoSb5.5Te1.5,550,8.611795775676073e-05,4.081055831053444,0.16256135948462086,152375.94623648757
10171,Fe0.94Co0.06Si2.00,550,-0.00016675729583405847,3.8898162886908425,0.1018977115078359,21820.76706621648
16960,Zn4Sb3,550,0.000174622911904879,0.791655241877813,0.8079459257637099,33362.768528754015
10091,Mn0.75r0.15Ru0.1Si1.74,550,0.00014742544783355032,2.5001568926092816,0.18257271846486056,38185.24171849417
12923,Co0.79Ni0.21Sb2.88Sn0.12,550,-0.00012467659821010772,4.6907745222342845,0.25749476309975794,130976.26690239078
12290,Zr0.5Ti0.5NiSn,550,-0.00018546601595718798,5.751882089763978,0.17269574402829102,53896.08920089396
12921,Co0.83Ni0.17Sb2.88Sn0.12,550,-0.00014789511489897927,4.7845659359482156,0.2888773351721586,132353.6737366188
16964, Zn4Sb2.94In0.06,550,0.00017575363508746158,0.8380491180012329,0.4855335011384867,22925.35899300036
12920,Co0.85Ni0.15Sb2.88Sn0.12,550,-0.0001586867142904889,4.5384672722790365,0.26069245163068605,83561.6694132917
12919,Co0.87Ni0.13Sb2.88Sn0.12,550,-0.0001814422673671608,4.604140756018904,0.2678258629471582,63812.373903305284
12918,Co0.88Ni0.12Sb2.88Sn0.12 ,550,-0.00018544107534515368,4.292180790887502,0.27758232203708505,56628.87268964572
14925,Pb0.71Mn0.04Sn0.25Te1.00,550,0.00011467928147798001,0.8943196682408545,0.012031394876190288,1486.3986520772655
10168,Fe0.95Co0.05Si2,550,-0.00022764299242968066,7.166277380508642,0.04948887969265335,12443.139653628052
12884,EuZn2Sb2,550,0.00016320556449857167,1.6466513137860233,0.6866963852412582,69482.57760953413
12880,YbZn2Sb2,550,7.731102193649055e-05,2.7509569874244217,0.19412339244118368,191260.12984830773
14933,TlSbTe2,550,0.0001806397499866113,0.923642494820384,0.5238333654530258,23015.939852856813
12860,CdSb,550,0.0002610787038027056,1.0059754782081891,0.21023100239230214,5312.468140086783
12861,Cd0.999Ag0.001Sb,550,0.00025797055790216224,0.8002714664992063,1.0883907322107933,24111.667688130536
12862,Cd0.997Ag0.003Sb,550,0.0002544174578922399,0.8361914188115096,1.143823046989339,27171.73914754223
12863,Cd0.995Ag0.005Sb,550,0.00025524756155011143,0.8135219892059476,1.2627493383565187,28323.002363206568
12885,EuZn1.8Cd0.2Sb2,550,0.00017790103562623948,1.5551906302690943,0.8072666415812697,68840.50898247346
14931,Tl9BiTe6,550,0.00021572732957696148,0.4702905910361122,0.7039060085045467,12506.702429740171
12893,Ca5In0.9Zn0.1Sb6,550,0.00015457908147296033,1.0100487707614747,0.30497452326552565,19845.610311049466
12892,Ca5In0.95Zn0.05Sb6,550,0.00018946183760566504,1.0230889680708664,0.3252607043785423,14095.531947997266
12891,Ca5In0.98Zn0.02Sb6,550,0.0002645140132891977,0.8494221703325721,0.26298058797298085,5223.53805329393
12890,Ca5In2Sb6,550,0.0004214546580127335,0.8016351152959112,0.12409734813810533,1179.879762640968
12292,Zr0.5Ti0.5NiSn,550,-0.00017738608215547266,5.4618840057298605,0.20591226783049496,69077.63795566981
4712,Ca0.18Co3.94Ni0.06Sb12.40,550,-0.00016799055534273357,4.8394193981627485,0.3789375436535298,126780.68992435414
6322,Ca16Bi11,550,1.2492690071483507e-05,1.3646089545181517,0.0012777009145924347,20312.47301537479
12887,EuCd2Sb2,550,0.00028971919045861245,0.8377787489389579,0.4860042730323656,8326.738745427729
12886,EuZn1.4Cd0.6Sb2,550,0.00020502822596466392,1.2489917135305484,0.6905296623967978,36405.45570507335
12980,Ni0.3Mo2.7Ni0.3Sb7,550,4.065026231829313e-05,7.35439373312751,0.06739482557598793,517099.8637685572
16940,AgPb20SbTe20,550,-0.00028252208054067016,1.069858547071898,0.6917369704164618,14379.639307450709
16922,(Ag2Te)46(Sb2Te3)54,550,0.00019106476255550448,0.8069857058647503,0.6241371395015949,25712.041017493437
16923, (Ag2Te)44(Sb2Te3)56,550,0.00021050298389152533,0.6262953224958565,1.0615059060800498,27266.356298604547
12978,Ni0.2Mo2.8Ni0.2Sb7,550,4.129223964582295e-05,7.0784574282403865,0.0697511837883117,492530.7774299701
16924,Zn4Sb3,550,0.000178985586655212,0.5017424824714748,0.7796951754271112,22963.963926188208
16925,In0.02Zn4Sb3,550,0.00017906440482838204,0.8182888137088086,0.5274159668792464,25119.905381971534
15122,Tl9Sn0.6Bi0.4Te6,550,8.601333731253159e-05,1.238143893744385,0.2700749663626005,80810.99407904455
12977,Ni0.15Mo2.85Ni0.15Sb7,550,4.263123624891266e-05,6.831213745359572,0.07382360294518908,475989.8668821207
16926,Pb0.02Zn4Sb3,550,0.0001809115654623037,0.6748776358167429,0.9407400340848416,36066.44686812852
4721,Yb0.3Co4Sb12,550,-0.00017302382288660482,2.929864820030017,0.8060397005150683,143341.314707312
12976,Mo3Sb7,550,3.798363051019657e-05,7.7575488252826466,0.049838106114403515,453170.5249680727
10177,(FeSi2)0.85(TiB2)0.15,550,-0.00011825333766198044,6.369244651064623,0.041929534506433164,34723.09813215435
16928,Ag6.52Sb6.52Ge36.96Te50.00,550,0.00014250834203925796,1.574161787208175,0.7975123657245877,106882.21390138034
12975,Ni3InSb,550,-1.4154527021488474e-05,15.538538072910614,0.00830983901967433,1081027.874024483
16929,Ag6.52Sb6.52Ge36.96Te49.00Yb1.00,550,0.00016158495816632687,1.608020317625291,0.9822508575384912,104448.44348219174
12974,Ni3GaSb,550,-1.2765640807473488e-05,17.528046301692623,0.0067998594875651255,1219106.311043124
16930,Ag6.52Sb6.52Ge36.96Te49.00Ce1.00,550,0.00016257837753086166,1.628039934256446,0.9756480690470432,103708.54006823832
16927,Ag0.02Zn4Sb3,550,0.00015439100602593814,1.0829078436629584,0.4945706771563948,42737.39272616717
12929,MoSb5.4Te1.6,550,9.348450510150251e-05,3.4914577680141083,0.18848432119258055,114190.70834303882