sampleid,composition,Temperature,Seebeck coefficient,Thermal conductivity,ZT,Electrical conductivity
16640,Zn4.08Sb3,500,0.00013166389789188697,0.9090753353702224,0.4796264426617457,47520.55773979047
1340,Si80Ge18Sb2,500,-0.00035415279129325373,2.709716584758596,0.17631116722094706,7436.580126753275
16637,"HMS(Mn4Si7, Mn11Si19, Mn15Si26, and Mn27Si47)",500,0.00016043447825730322,2.6803897516238746,0.2106686242109838,41679.26613600733
16638,"HMS(Mn4Si7, Mn11Si19, Mn15Si26, and Mn27Si47)",500,0.0001536171868655928,2.547906450225832,0.21279333198906614,43822.80740029303
15211,(Ag0.03PbTe)0.945(Ag2Te)0.055,500,-0.0002879152403726567,1.0258789329396172,0.5633286445035701,13601.375036900616
16639,"HMS(Mn4Si7, Mn11Si19, Mn15Si26, and Mn27Si47)",500,0.00016750927259491266,2.2507967836045206,0.2347398987867799,37611.094766692586
16343,Ge1.5Sn2.5SbTe5,500,0.00011496835972725157,1.647497407267978,0.23624126872717094,58891.664770952375
13227,CoSb2,500,-2.1845753529608e-05,7.929194951357648,0.006887160427007281,228857.5434013514
15210,(Ag0.02PbTe)0.945(Ag2Te)0.055,500,-0.0002843431085871468,0.9889925817507926,0.6478501859124912,15847.980637250166
9424,(Mg2Si0.9975Sb0.0025)0.4(Mg2Sn)0.6,500,-0.00027365387830558896,1.5369831636764917,0.39890089290623065,15594.44209668328
5117,Co0.9Ni0.1Sb3,500,-4.759403071969229e-05,10.983820900341666,0.006187590066231645,61278.214009499716
5024,Sn0.1Co3FeSb12,500,9.782612817370344e-05,2.1816200973635915,0.11334469750912005,45861.161541911795
16644,Zn4Sb2.96Te0.04,500,0.00014318664641863691,0.7337920216512359,0.5918401783565022,42207.941515926716
16645,Zn4Sb2.94Te0.06,500,0.00015496078222979666,0.7733243598653621,0.5609742433451305,31642.648498952316
16646,Zn4Sb2.92Te0.08,500,0.00016777152170427618,0.6836156032191801,0.6412260175153911,28397.32513505872
1339,Si80Ge18Sb2,500,-0.000369136959588665,3.0068299008544828,0.28912438850515465,11445.79774573613
15384,Mn0.995Ag0.005Te2,500,0.0002692536045871525,1.2427666341037067,0.07653572021985436,2306.048212283324
16795,AgCe0.005Sb0.995Te2.01,500,0.00023170384254216918,0.6026954903014421,0.8655991662467195,19058.840157589093
16232,AgIn5Te8,500,0.00011628714288771297,0.7370483466362576,0.0006203096855018611,58.551696816590955
10199,FeAl0.10Si2,500,0.00018762798362146235,9.6973790083754,0.047427939153614686,26129.036568375424
16796,AgCe0.01Sb0.99Te2.01,500,0.00024141621010962118,0.5976794962254189,1.0001259711962465,20067.262708369144
6245,Yb14MNSb11,500,8.681029816972416e-05,1.0243870727190405,0.12372388209589658,36305.40403145798
13309,Ce0.9Cu0.1Se2,500,0.00033319212355065794,0.9384998697659712,0.0893385937475615,1523.4673553011605
10198,(FeSi2)0.7(TiB2)0.3,500,-2.304375938958058e-05,9.523949428316877,0.003651001466816165,130964.14739395998
16797,AgCe0.03Sb0.97Te2.01,500,0.00026339795193709015,0.5959194811695225,0.8723670008858446,14857.480140048196
10689,In4Se2.5,500,-0.00026264163289212107,0.9602573123971784,0.2324980771200104,6784.1266060557455
13308,CeSe2,500,0.0004619884485296725,0.7893787662740753,0.00306182712869841,18.51597478282843
13115,Ca3Al0.99Zn0.01Sb3,500,0.0001938212844253976,1.1591827407845612,0.17693960068634965,8852.629733610875
5143,Sr0.26Co3.95Ni0.05Sb12,500,-0.00013265195978778466,4.1953576367353165,0.4732521214012506,222476.79090865073
13874,Mn0.48Te0.52,500,0.0005590228994901844,1.3586545880728085,0.053778461166862884,473.20126325975775
9423,(Mg2Si0.9875Sb0.0125)0.4(Mg2Sn)0.6,500,-0.00032077947669616603,1.338341724895587,0.4125225206985422,10490.634791938684
13875,Mn0.49Te0.51,500,0.0005680568671026809,1.2012471338326958,0.06750359507443715,550.1530441826907
9683,Ga0.07Sn0.93Bi2Te4,500,8.3695527892507e-05,1.2229728009311844,0.14974251187232868,46425.36150098564
10197,FeAl0.06Si1.95,500,0.00023957783159200702,4.143091262464028,0.040340416116856834,5823.7350638000025
13876,Mn0.50Te0.50,500,0.000553555869043862,1.0676987787057666,0.07729352317807106,573.7619968548407
13101,(GaSb)2.7(Ga2Te3)0.1,500,0.0002651105211608995,3.3116247426289034,0.003555402368985582,335.0471630180518
13310,Ce0.8Cu0.2Se2,500,0.0002743369313140579,1.6276201413886782,0.044813681252555713,1996.6411368382041
16798,AgSbTe2,500,0.0002758261300184583,0.5577589472290945,0.9465489509199432,13935.846184272903
16233,AgIn5Te8,500,0.00011748388891293724,0.8578053057991928,0.0015383120968366169,173.0296018896435
13124,Yb9Mn4.2Sb9,500,0.00010551393863763766,0.6439385910741914,0.2322976906520464,23076.70216010369
13853,Ge0.86Sb0.09Te,500,0.0001477577144021537,2.4301851184609085,0.5389901321513193,108537.1246559713
5855,MgAg0.97Sb0.99,500,0.00022880883082613686,0.921927111507272,1.1185927330485752,38641.43260121343
13854,Ge0.86Sb0.09Te,500,0.00017143070085855113,1.7644872801566174,0.7460649596695621,87031.92795977414
10201,Fe0.98Co0.02Si2,500,-0.0002795760513688437,3.9746799379484457,0.03905441925619317,3971.937526952252
13855,Tl9.5La0.5Te6,500,4.063091754084196e-05,1.2658057608195632,0.06284679812499194,96327.02257799596
9688,In0.03SnBi1.97Te4,500,8.557840049104267e-05,1.1258505981625526,0.1510388870331431,41515.86702498501
13123,CaAl1.9Zb0.1Sb6,500,0.00013040312591087436,1.2128509996892425,0.16597375496248287,22078.598351099303
13856,Tl9.25La0.75Te6,500,7.847727561437444e-05,0.9061628453303938,0.08213482980819352,23579.380476074097
13852,Ge0.87Sb0.09Te,500,0.00015216537900748092,2.42384980559075,0.6192332150587994,121195.5003246326
13849,Tl8.99Bi1.01Te6,500,0.0003177108278657752,0.3178862515929459,0.5457938751975189,3437.687273220646
5856,MgAg0.97Sb0.99,500,0.0002300277219622395,0.9134532101482108,1.0768910550408253,41151.36303820305
16238,SnTe,500,4.157289863319924e-05,8.064780969446613,0.041221531010422634,345511.2756258671
8215,Bi2Sr2Co1.7Ox,500,0.00011585375730494704,0.981216884721844,0.007502160421679434,1049.1528181236627
13125,Yb9Mn4.2Sb9,500,9.307895767035634e-05,0.625460125441472,0.19539343069414936,23466.33184687021
13851,Ge0.87Sb0.09Te,500,0.0001351006216994107,2.6668232760673583,0.4200004173779465,126560.29455325358
6244,Yb14MnSb11,500,8.704592404542064e-05,0.8300685319684185,0.18114143012943995,36244.08288446759
13857,Tl9LaTe6,500,0.00011036458052537937,0.4826868968957574,0.18161038394204568,14367.476256327936
13119,Ca5Ga1.95Zn0.05Sb6,500,0.00015062890017460012,1.1524540716441565,0.1873413923954476,16668.026357338218
16785,(GeTe)0.85(AgSbTe2)0.15,500,0.0001596916511317636,1.5976517518165074,0.7691052537535288,91194.38832366934
5852,MgAg0.967Cu0.003Sb0.99,500,0.00022384251152312543,0.8951200695021352,1.2274314892233131,43448.40704387319
4832,Ba0.24Yb0.12Co4SB11.85,500,-0.00013854869033737987,3.5932292608648875,0.6545725341790072,240269.0432562029
13118,Ca5Ga2Sb6,500,0.0002864241740306103,1.1617207977327484,0.02661711407690437,897.7005923340398
5851,MgAg0.97Sb0.99,500,0.00022653304802228798,0.9146213368608821,1.1467238827708028,40849.9673145541
2382,Ba8Cu4.5Si6Ge35.5,500,-7.163937610530244e-05,1.2721087573796197,0.14681452800011918,72501.21695778459
5142,Sr0.21Co3.92Ni0.08Sb12,500,-0.00014479085744274279,4.0198474552314885,0.44877301216092813,156779.60947377945
13861,Ge0.6Sn0.4Sb2Te4,500,5.1885337857542516e-05,1.7878963158517684,0.09858649563705496,130948.4784366825
16784,(GeTe)0.8(AgSbTe2)0.2,500,0.0001885353124114701,1.337942932179681,1.0617443810184923,76192.78540945966
13122,Ca5Ga1.7Zn0.3Sb6,500,8.164262533249462e-05,1.5891173915890282,0.11613239097833615,54554.04727102741
16783,Ge0.87Pb0.13Te,500,0.00015314757997460926,1.8034317188083675,0.6757994508416545,87062.43974346794
13858,Tl8.85La1.15Te6,500,0.00014867319465974778,0.439570829410026,0.16189881826897318,6989.9582581638015
5854,MgAg0.96Cu0.01Sb0.99,500,0.00022524776638444902,0.8561996855655272,1.2606680775869412,42319.72856030715
13859,GeSnSb2Te5,500,4.991955240535338e-05,2.6214849965802918,0.058991449685134326,124115.22978835367
13860,Ge1.3Sn0.7Sb2Te5,500,5.0016598536605936e-05,1.9888687389149635,0.08221564368543874,130726.08998238332
10200,(FeSi2)0.995Cu0.005,500,-0.000441936844162233,13.407138363796394,0.0032160560500157803,441.53920969978753
5853,MgAg0.963Cu0.007Sb0.99,500,0.0002184812886994673,0.8747040139629485,1.2951900759809638,47040.709466685534
13120,Ca5Ga1.9Zn0.1Sb6,500,0.00012396829068992733,1.3507427520562936,0.18046826035285027,29076.021910659754
4833,Ba0.14Eu0.13Ci4Sb12.05,500,-0.000136950568060593,3.9973452614703686,0.6374004424063064,267739.8056930577
1665,Bi2Te3,500,-0.00012306010785726598,0.4933588440800705,0.2738930331549989,17845.935388379225
16821,AgSbTe2,500,0.0002706331975226973,0.4853817767421962,1.2948414948781728,16906.956568285757
16822,(GeTe)75(AgSbTe2)25,500,0.00021475593564302317,1.2226299507674605,0.9804154893366268,51584.2260745571
10086,MnSi1.73Al0.001,500,0.00017283017852225835,2.5266025953917395,0.19516061639291746,33015.658034510416
481,Fe0.96Zr0.04Si2,500,3.896949784134269e-05,9.839653286850176,0.0007318596510274526,9796.86478390148
16818,(Ag0.366Sb0.558Te)0.96 (GeTe)0.04,500,0.00019330832894368712,0.8394301254644376,0.2526592649832357,11065.017652909555
16819,(Ag0.366Sb0.558Te)0.92 (GeTe)0.08,500,0.00015638890618590714,1.0038301037776642,0.14561026705283253,11601.160813406706
13888,Mo3Sb4.8Te2.2,500,9.328853649945736e-05,4.120012633948159,0.09722454911776066,75838.3790494212
16217,Tl7.9Sn2.1Te6,500,0.00011869949111058615,0.6616414708717304,0.3461118723617111,30014.382854421852
2384,Ba8Cu4.5Si6Ge35.5,500,-6.212564913013783e-05,1.9392045691106132,0.10011265513219668,101965.89569536726
12195,Bi0.5Sb1.5Te3,500,0.00019468132845291308,1.4748802037946844,0.4702848227086498,33410.124801433776
544,Ba24Ga9Ge91,500,-5.076833474645743e-05,2.2730854296073866,0.08138827652895886,142573.3946142073
16820,AgSbTe2,500,0.00027492326354480956,0.5649077445947269,0.9374216448177204,14054.589487039617
16215,Tl8Sn2Te6,500,9.488368100227513e-05,0.6363378355960113,0.20940951594526366,32493.069730073392
16823,(GeTe)80(AgSbTe2)20,500,0.00021462220705023604,1.1898709924877393,0.8220185758064109,40839.39545841291
9671,SnBi4Te7,500,7.836345520755193e-05,1.0405278087588383,0.10742334184296247,29685.358976763793
16211,Tl8.3Sn1.7Te6,500,6.912209312978579e-05,1.1174023046937132,0.17253539080155644,84042.53486328776
16826,AgPb18SbTe20,500,-0.00034110102888247834,0.8290943229555373,0.17482289045090066,2037.1473888385708
7903,La2.76S4,500,-5.068751148261894e-05,1.2313168604318068,0.0624740132582024,59882.13658603223
482,Fe0.94Zr0.06Si2,500,2.4655329382082024e-05,9.13338335961675,0.0014540082725007176,44845.65676921446
16824,(GeTe)85(AgSbTe2)15,500,0.0001635702201197638,1.5817278328636593,0.8655690417202906,96933.49873946348
16825,(GeTe)90(AgSbTe2)10,500,8.509715015410902e-05,2.4588486071783318,0.27811983481508323,176567.2258472863
16817,(Ag0.366Sb0.558Te)0.98 (GeTe)0.02,500,0.00023578986019214508,0.7054368328123377,0.3683086666374749,9271.146418202055
1668,Bi2Te3,500,-0.0001409579249497606,0.8647962086445773,0.5857154150239018,50986.05745161252
1669,Bi2Te3,500,-0.00013837135050257486,1.2390728716885295,0.3903966386161135,50528.98269206711
10196,Fe0.95Co0.05Si1.946Ge0.054,500,-0.00014410813392253815,5.1193715831639865,0.03948868756934025,19468.942392616435
8962,CrSi2,500,0.00013654706501829497,9.559006344404107,0.06985798030856058,79648.10148038284
9681,Ga0.03Sn0.97Bi2Te4,500,8.315273631913548e-05,1.2408137020539904,0.1698505168714176,56889.42600209058
13095,Cu2Ge0.85In0.15Se3,500,6.335133903339004e-05,2.5640301040012337,0.11020659765624437,129906.05006668727
4831,Ba0.15Yb0.09Co4Sb11.86,500,-0.0001538268591677029,3.3496446650375877,0.6414827963652634,181608.9762877684
13094,Cu2Ge0.9In0.1Se3,500,7.150014848343287e-05,2.079040038875772,0.08482842409831431,72143.41658453601
7904,La2.27Ca0.73S4,500,-5.253470504950912e-05,1.145505517140512,0.06470159649491447,53709.31100753936
16808,Ag(Sb0.97In0.03)Te2,500,0.00022901791673052475,0.6973634461351006,0.8335147489857614,21081.64514261389
16807,AgSbTe2,500,0.0002105126202062424,0.7423797904405841,0.7386745810505265,24346.749726751466
13311,Ce0.7Cu0.3Se2,500,0.00017003539824264442,1.7403904299835078,0.05607700548653383,6454.386922280612
13100,(GaSb)2.7(Ga2Te3)0.1,500,0.000271805443148966,2.6936426078324835,0.005253675076808317,383.1041698481889
13877,Mn0.51Te0.49,500,0.0005432720355494494,1.1576254073373755,0.07986653904822316,625.6431903853581
9682,Ga0.05Sn0.95Bi2Te4,500,8.034604187888145e-05,1.2924033493796183,0.12995116842176965,54844.68194574068
13099,(GaSb)2.85(Ga2Te3)0.05,500,0.00035443686269050466,5.696037559125887,0.0037634100263685,341.276677576481
13878,Mn0.52Te0.48,500,0.000496633725907458,1.0019698955848555,0.07043449146909593,518.6769768937759
1666,Bi2Te3,500,-0.000137714503957196,0.6850034414708475,0.5506898584357092,39780.520689686135
13098,(GaSb)2.85(Ga2Te3)0.05,500,0.0003575494604672869,4.938144638729772,0.004439344687252022,342.95758667732537
1667,Bi2Te3,500,-0.00014628203313757793,0.7154433472292379,0.7146217810650883,47785.872341104216
5914,K0.6Ir4Sb12,500,-0.0001781700364246014,5.169698653324328,0.08790525136449376,23719.481394938768
4829,Ba0.23Co4Sb12.22,500,-0.0001463358605914795,4.148672574791084,0.5704142831098782,214524.18560813754
9679,In0.07Sn0.93Bi2Te4,500,7.81287451268879e-05,0.7629445422787724,0.13519721940101642,32704.67154857496
16809,Ag(Sb0.95In0.05)Te2,500,0.000249615478898427,0.6576750372841187,0.9360367613370209,19152.00199254732
13885,Mo3Sb6Te,500,5.377966282960026e-05,4.45952755680657,0.09537338975700246,259104.4744272525
16219,Tl7.8Sn2.2Te6,500,0.0001598338894369986,0.4851012771032393,0.41785281574756505,15509.248994394497
13886,Mo3Sb5.6Te1.4,500,7.71280578609177e-05,3.9548800394662273,0.1442662572265022,165039.6518421925
16815,(Ag0.366Sb0.558Te)0.99 (GeTe)0.01,500,0.0002551228780790538,0.6079894063367193,0.3550676395158052,6702.433575295058
16814,Ag0.366Sb0.558Te,500,0.0004130764458351432,0.5603834048374106,0.5238106485160118,3398.31083497396
13887,Mo3Sb5.2Te1.8,500,0.00010815562721649471,4.2056126119394985,0.1291004061494947,92946.8336186852
16218,Tl7.95Sn2.05Te6,500,0.00012673294452334444,0.7068168069905681,0.38804063737218025,32807.35687254047
9677,In0.03Sn0.97Bi2Te4,500,8.376005031116692e-05,1.233272190272196,0.1465849991047949,45923.17350263917
480,Fe0.98Zr0.02Si2,500,8.751439141272617e-05,8.702232384243782,0.0006835855664496496,1336.5802641018186
13883,Ge0.95Mn0.05Te,500,0.00011600561109857541,2.8575707060699864,0.6041453240471507,218031.937107878
9678,In0.05Sn0.95Bi2Te4,500,5.890220932408831e-05,1.3184523296974895,0.03891324909990848,31886.411580487525
13092,Cu2GeSe3,500,9.910218460930994e-05,1.5631013460805248,0.037432855008460185,9803.263058034912
16810,Ag(Sb0.93In0.07)Te2,500,0.00026565357124878187,0.6355720269637606,1.0265094509516162,18136.833325516334
13884,Mo3Sb7,500,2.7068871197131e-05,6.8717993472061965,0.03135207782180974,527094.1399177246
10879,Bi0.5 Sb1.5 Te3,500,0.00015318036457450117,1.5649312440924061,0.26850409810079745,33921.948394727595
4830,Yb0.14Co4Sb12.05,500,-0.0001885308112695009,3.172823695416481,0.7145522615560409,124774.37737013744
13093,Cu2Ge0.95In0.05Se3,500,7.39207354291443e-05,1.7340215735055429,0.06536755907494851,41047.12967915165
16744,(GeTe)80(Ag0.6Sb1.4Te2.4)20,500,0.00019528054697950543,1.5647261818177511,0.8209827223558295,67279.34371150628
16564,Mn36.4Si63.6,500,0.0001676844078664736,2.7966398726073165,0.2094832924764876,37181.42481146414
6235,Yb14MnSb11,500,8.576140053675636e-05,0.7947839795154077,0.16568113211148186,36274.65005056967
16250,OsGa3,500,-0.0004355122129161853,2.5038415906389457,0.021695555627867968,572.8051911464703
10207,Fe0.98Co0.02Si2,500,-0.0002212965289801985,4.023157660365596,0.031978554914205704,5254.200942723996
13634,Cu2.95Sb0.96Sn0.04Se4,500,0.00014253733768453702,2.309921471639126,0.29263625789672576,60291.327636196926
14535,Ag3SbSeTe2,500,0.00010949028508234868,0.579459126396083,0.02289537058998076,2213.345986453926
16741,(GeTe)80(Ag1.2Sb0.8Te1.8)20,500,0.0001812990355188205,1.4545875510865545,0.8995658327603571,80623.46561193548
6233,Yb14Mn1.05Sb11,500,9.704190211516083e-05,0.8846909730050467,0.21027976578509225,39938.10330258914
16742,(GeTe)80(Ag1.4Sb0.6Te1.6)20,500,0.00016429976412365069,1.5512337815569566,0.6430229967997483,71152.40901121678
4347,Yb0.05Co4Sb12,500,-0.00020098169190213566,4.956981799829639,0.04925534721072678,12931.417202852468
16743,(GeTe)80(Ag0.8Sb1.2Te2.2)20,500,0.00017849938547330414,1.5397036225777456,0.8233343767987338,78071.42478643302
14731,Cu1.99In0.01Se,500,0.0001691095652697757,1.113927411960935,0.3295628520194148,22947.19684773828
7910,La8/3Ca1/3S4,500,-3.490117985900337e-05,1.613431667820186,0.044770253111815185,118601.42429722856
6234,Yb14Mn1.1Sb11,500,9.537971006822572e-05,0.8951193344152492,0.19443186422747288,37298.29347370835
14536,Cu0.1Ag2.9SbSeTe2,500,0.00013937390555086258,0.5729758309656651,0.06817612837106186,4021.9409801719958
13816,CuInSe2,500,0.00015222572278122154,0.8058486912722735,0.31299212378784186,19181.277219553765
9694,Ga0.07SnBi1.93Te4,500,8.376488871552671e-05,1.1754645053747452,0.1554602214061383,53017.542999962716
13632,Cu2.95Sb0.98Sn0.02Se4,500,0.0001726993519609375,2.0226286559384743,0.3499245584029296,38791.82322460926
5862,Ca0.75Yb0.25Zn2Sb2,500,0.00014117574419148172,1.4077855732460065,0.24861587535574614,32450.616190601402
5140,Sr0.19Co3.98Ni0.02Sb12,500,-0.00016250464841697682,3.9953867067738313,0.4129843722548721,128783.71585398856
10206,Fe0.95Cr0.05Si1.958Ge0.042,500,0.00020948208664562352,8.099857356673104,0.02342388014619683,8647.138621049844
8213, Bi2Sr2Co2Ox,500,0.00012851850303292805,0.9116339869281044,0.008716734011594528,917.9608942426164
7908,La2Ca0.2S3,500,-3.480324744437254e-05,1.5558015499663798,0.031176515910896305,80088.88298408926
13815,CuCr0.25In0.75Se2,500,0.0001333536095700414,0.962970165025968,0.2524589541042171,22209.12033136322
7909,La2.90S4,500,-3.661953449926658e-05,1.92945043743633,0.04336169004771903,124779.77118459185
16749,AgSn3Pb15SbTe20,500,0.00020619369819907863,1.1833347444052569,0.39052278953950703,20571.08203922164
13633,Cu2.95Sb0.97Sn0.03Se4,500,0.00015547944765844382,2.1152243822815078,0.3294478113455767,46757.73804921878
13813,CuCr0.75In0.25Se2,500,0.00012123165212266409,0.9596788812042716,0.24164814488322905,28418.5144847792
16750,AgSn9Pb9SbTe20,500,0.00017278607315136002,1.2704436092000957,0.4601053128757989,33662.88639687076
4348,Yb0.1Co4Sb12,500,-0.00018652388601982084,3.4491576551085354,0.29719065285338736,70229.32660099384
16249,RuGa3,500,2.7224187892075063e-05,2.5893019530315,3.925876425089086e-05,274.3086184588788
13814,CuCr0.5In0.5Se2,500,0.00012562825939158064,1.0159783613108049,0.2197280707826404,25801.107631181967
16751,AgSn15Pb3SbTe20,500,0.000132553950468713,2.0761413828023962,0.2329599969631972,48931.537709475895
13812,CuCrSe2,500,0.0001385325450932163,0.8493925939961675,0.24930995144952525,20135.05118578212
16740,(GeTe)80(AgSbTe2)20,500,0.00017569674082142073,1.4350382393719234,0.8110744909661453,73867.11206715801
6236,Yb14MnSb11,500,9.517937216140811e-05,0.9103127784847348,0.18909132612155544,37595.15361457643
5867,Yb14Mn0.8Al0.2Sb11,500,9.2911800310524e-05,0.9434825450164586,0.18039257296971745,40777.45657476165
13275,Zn4Sb3,500,0.00016728265907573102,0.7275272604264255,0.7242760817706934,33205.523505211204
6229,Yb14MnSb11,500,9.350889210595688e-05,0.8291546350176535,0.17765890280008212,32666.076518198042
14732,Cu1.99Sm0.01Se,500,0.00012133264977003328,0.9323409261314066,0.4666033599232162,50747.47227170733
14539,Cu0.2Ag2.8SbSeTe2,500,0.00015902877109806517,0.5062571835940051,0.0948240425578336,3796.367570154271
10392,NaxCoO2,500,9.162570358158936e-05,1.9576010905252421,2.4840923908538133e-08,0.01158476673175964
5139,Sr0.22Co4Sb12,500,-0.00015095168402909264,4.232632966880772,0.3788532579713071,132179.7979975943
16567,Mn28.4Re8Si63.6,500,0.0001429946684245377,1.7642180660329196,0.3956766200138189,66279.70424736584
10084,MnSi1.73,500,0.0001773865865548559,2.364507155233267,0.16499238811574804,24796.648366471894
14538,Cu0.2Ag2.8SbSeTe2,500,0.000231972305138939,0.4787304161838595,0.12142783884234495,2160.5633570593654