sampleid,composition,Temperature,Seebeck coefficient,Thermal conductivity,ZT,Electrical conductivity
14619,Ba0.5Cr5Se8,150,0.00013841617603059986,1.0558552557219183,7.693749855413594e-09,0.0028266855261343763
14584,Cu2Ga4Te7,150,9.38883677953952e-05,2.317811478754711,1.4853392535789873e-10,0.0002603687934039787
14581,Cu6Ga8Te15,150,6.501261094512688e-05,3.884485051335392,1.1111979520068114e-11,6.808295731557839e-05
14578,Cu3Ga5Te9,150,8.423918248292412e-05,2.888971809227736,7.219815268779709e-11,0.000195952064520451
14576,CuGa3Te5,150,0.00021647718510630907,0.8069063719966914,6.23337860834517e-07,0.07155354055906654
5218,CoSb3,150,4.956504540431382e-05,0.0757382778675681,0.013585499081896164,2792.214304326223
14591,K1.46Sn3.09Bi7.45Se15,150,-2.9074676844717304e-05,0.8121133302198986,0.0018515375373580891,11858.454962806209
14590,K1.25Pb3.5Bi7.25Se15,150,-1.3941177853573536e-05,1.022884207608055,0.002534510304347849,88926.32406285258
5215,Yb0.2Co4Sb12,150,-4.7299115866861376e-05,3.4582416065521158,0.037651312441750934,362008.92970417615
14247,Mo3Sb5.4Te1.6,150,2.5554503066041284e-05,4.217109548599131,0.005297676153231083,228073.14437402648
14248,Ni0.06Mo3Sb5.4Te1.6,150,3.7467727793506e-05,5.396376047548591,0.009236857417726068,236712.10852253306
13782,Ba3Cu13.88Te12,150,9.237983512108153e-06,1.007618336884495,0.0003703968935890215,29155.317376722363
17135,Zn4Sb3,150,9.365593763923936e-05,2.3350937819466497,0.02041571276315097,36233.22432558989
11898,Bi85Sb13Pb2,150,5.4284479336107065e-05,2.403354444533166,0.04506558543026767,235381.6117451516
9821,Pb5Bi12Se23,150,1.5245924446485922e-05,0.8976994242327496,0.001836187443202368,47276.919881819456
9822,Pb5Bi18Se32,150,2.5585837948410942e-05,0.7353223959983861,0.004101613175441509,30714.393523925963
14882,Bi1.7Pb0.4Sr1.5Nd0.5Ca1.1Cu2.1O,150,1.569082627031041e-05,2.3078456405032477,0.0003563702183530365,22270.259321074613
11897,Bi85Sb14Pb1,150,6.249992645735506e-05,2.201326294714564,0.0577487584148761,212047.5582955164
9820,Pb5Bi6Se14,150,1.534957542300924e-05,1.1357165191234837,0.0018465485049971985,59339.88077981098
11899,Bi85Sb12Pb3,150,4.9143768360006344e-05,1.7705297353050309,0.030046800894627624,149246.0073209784
14881,Bi1.7Pb0.4Sr1.7Nd0.3Ca1.1Cu2.1O,150,8.365018923894089e-06,2.2784962389319605,0.00018359261638431528,39854.59612109922
4705,Ca0.08Co4Sb12.45,150,-7.960160630415201e-05,5.413798907607354,5.314893957801792e-05,302.73442006881095
4706,Ca0.08Co3.98Ni0.02Sb12.15,150,-0.00010425034277211776,5.966205837248077,0.0001581900133346847,578.9366624308018
4707,Ca0.10Co3.98Ni0.02Sb12.15,150,-0.00010033621842271268,4.821495108163165,0.0002437107086848981,778.1254613647062
4712,Ca0.18Co3.94Ni0.06Sb12.40,150,-7.690003088546541e-05,5.668687354192626,0.031654407711931204,202289.06602959687
4708,Ca0.10Co3.95Ni0.05Sb12.34,150,-0.00010160331105919336,5.832984486443975,0.00027684014586331544,1042.8285431414213
9695,CsBi4Te6,150,-2.8678716937289838e-05,1.6304015736763693,0.00018206190002268013,2406.0406622751207
13754,Tl2HgGeTe4,150,-2.351581229406761e-05,6.324549188005054,5.0103750670806314e-09,0.3820221840648625
14880,Bi1.7Pb0.4Sr1.8Nd0.2Ca1.1Cu2.1O,150,-7.249917942752683e-07,3.4640398189753028,1.644099325051819e-06,72235.96607706933
16339,Ge3.5Sn0.5SbTe5,150,7.972698462122041e-05,1.2507238781560701,0.031343265783539166,41115.32712400723
11896,Bi85Sb14.5Pb0.5,150,7.565297802510574e-05,1.9595967158244805,0.053922976705829184,123073.4036944122
14879,Bi1.7Pb0.4Sr1.9Nd0.1Ca1.1Cu2.1O,150,-1.2490873163030633e-06,3.743328460069169,9.590597176417763e-06,153400.48421435626
14878,Bi1.7Pb0.4Sr2Ca1.1Cu2.1O,150,-3.1645778321082718e-06,3.4890671394691783,8.908432298705763e-05,206913.00514477168
17201,Zn4(Sb0.985Se0.015)3,150,3.323717888999796e-05,1.4130673917901868,0.006701214692307651,57144.81597241304
13898,CuInTe2,150,0.00026720292589053744,13.875034220368327,0.00010256426860656841,132.87903713202712
13899,CuInTe2,150,3.943243136432157e-05,1.7684208083657411,1.0998091437291589e-06,8.338819461821956
12013,Bi85Sb12Ag3,150,-0.00010757630989835078,0.9288402382516378,0.18130776443106106,95067.13343065199
12014,Bi85Sb10Ag5,150,-8.059837484969972e-05,1.4676425801767352,0.04695581138467359,68207.75956357707
12012,Bi85Sb14Ag1,150,-0.00010527352348922642,0.9247122768132084,0.24969994540008425,137710.25026062515
15761,SnTe+1mo3%PrTe,150,1.7997657527079687e-05,40.07858923698807,0.0001227685282540782,101268.9365921291
10978,CoO0.09N0.91,150,-3.5975832844945644e-05,2.821995114685768,0.0010989244155942834,15973.905382403867
9149,PbBi4Te7,150,-5.662826460481156e-05,1.5328241495259791,0.0471974046309314,150401.6799273838
12015,Bi85Sb8Ag7,150,-0.00010224023188830645,1.3251578671742743,0.10519925230393,102985.52313899212
11075,Sr0.95 La0.05 Ti O3,150,-6.82110542081769e-05,6.170579602304174,0.043491288047312913,357834.8851974352
1867,Sn0.9Co0.1CCo3,150,1.4713673735700113e-05,4.29672395462993,0.002536404973253088,335600.4594763109
16631,(Zn4Sb3)0.9In0.1,150,0.0001129227240810249,1.928502896062828,0.018743259609524183,21480.603623727035
11074,Sr0.95La0.05Ti0.02Mn0.0126O3,150,-8.32966931403923e-05,2.8419827787589096,0.07536473185089991,197069.61269754573
1864,Sn0.95Sb0.05CCo3,150,4.414432677086428e-05,2.4392068197867087,0.02127360856370691,177520.59080323193
12016,Bi85Sb15,150,-9.832414560942618e-05,1.636926682220631,0.0583986312365591,63914.347152074384
7488,Cu4SnS4,150,6.356212793200498e-05,0.6701522797222446,8.467495579482533e-05,93.63546308415123
12011,Bi85Sb15,150,-9.58142218162668e-05,1.197636407359829,0.11180125486400627,97532.65864665533
15760,SnTe+2mol%PrTe,150,6.53657204721112e-05,47.03600742087476,0.001252711631317894,91936.97205697316
15759,SnTe+1mol%PrTe,150,0.00012671322691805488,55.13986524504786,0.0034601459102519164,79218.19675825074
16673, AgSbTe2,150,0.00012182144843420952,0.687698691562184,0.0799510009751083,24699.22501456124
1900,FeSi,150,-4.765825242774688e-05,11.72401287437368,2.116489379912696e-07,7.283244587526293
1899,FeSi,150,-0.00012040361914084675,11.209622088087118,1.4786077958613884e-06,7.622082081918744
1356,Co0.8Fe0.2Ge,150,2.909449866528713e-05,7.3424048845437895,0.0037207530234935953,215157.3354401728
1357,Co0.7Fe0.3Ge,150,2.012043261642665e-05,5.744096733030367,0.002296624484968579,217243.02814996976
1888,Dy3Ru4Ge13,150,2.658180362414706e-05,1.6451931001582916,0.0006467642678773392,10039.284182844403
1889,Ho3Ru4Ge13,150,2.648808806618561e-05,1.890240976056741,0.0005588417443456493,10037.222017973962
1890,Lu3Ru4Ge13,150,2.352051374412267e-05,2.1879227817994624,0.0005114284277735793,13484.411240091644
1359,Co0.92Ni0.08Ge,150,-1.805215225097099e-05,9.125003297894798,0.004300813117346015,802849.9178933802
1887,Y3Ru4Ge13,150,2.8119158337747203e-05,3.139441969382692,0.0003288999278048685,8706.03370975489
1892,Y3Ru3.2Co0.8Ge13,150,5.414505587526559e-05,2.3727608003383134,0.005855182495744268,31592.611229930277
1353,CoGe,150,-4.94822459544331e-05,9.585868982981477,0.02176423936234934,568047.8444281727
1355,Co0.88Fe0.12Ge,150,2.6711753055794862e-05,7.205589062593219,0.0024836800419370557,167212.63731431097
1354,Co0.96Fe0.04Ge,150,-5.9859524729392176e-06,7.1549436487748,0.00012956021157400904,172472.5873636681
12083,Bi85Sb13Ge2,150,8.001265656452851e-05,1.914577213022294,0.0438064370936853,72446.67009727124
1891,Y3Ru3.6Co0.4Ge13,150,3.9048816336130105e-05,3.1585899189728566,0.003488244259384089,48171.827916962604
12018,Bi85Sb14Nb1,150,-0.0001330011981898525,2.4760321460356107,0.1418260088406773,143987.59281594874
1344,Si0.8Ge0.2B0.016 ,150,0.0001215670532309603,2.610332628087223,0.04294537814482698,50569.56814507875
12019,Bi85Sb13Nb2,150,-0.00014930371787945777,2.2806636965652816,0.2270776979284849,164753.8469973097
1345,Si0.8Ge0.2B0.016 (CrSi2)0.091,150,0.00018567354298375903,3.133461152982085,0.04599139199531152,27868.24121633862
15884,Rb2BaCu8Te10,150,1.5328378529890327e-05,2.2396853212583836,0.00015903045193987425,10106.100307194898
12017,Bi85Sb14.5Nb0.5,150,-0.00012156598386195029,1.8566157467252613,0.14189099041667574,121066.2877844123
6881,,150,0.00012216069517159532,1.8918043100821185,0.28690843399522026,254063.5509856014
1346,Si0.8Ge0.2B0.016 (CrSi2)0.091,150,0.000196703652171194,2.9746587948964933,0.04477312171313561,22947.66109481709
12804,Cu10Ni2Sb4S13,150,0.00013902325488123211,0.2536498443995284,2.1908970893058483e-06,0.19168600895520385
12803,Cu10Mn2Sb4S13,150,0.00010311345899096855,0.26902432268453924,4.1360980949517716e-07,0.06976866394918874
12802,Cu10Zn2Sb4S13,150,0.0001145312068283138,0.3160582382433398,2.9875342977772627e-07,0.047988931673412526
9466,GeBi3SbTe7,150,8.904353687979539e-05,0.3057379627546024,0.08705112427743933,23494.82796909205
16515,Zn4Sb3,150,6.060331919141259e-05,1.5294279310732093,0.0030456956392855864,8455.347054097061
12805,Cu10Cu2Sb4S13,150,3.9580120539527975e-05,0.4983674764088247,0.0005018477799051687,1064.3297841488106
12801,Cu10Co2Sb4S13,150,0.00019347092885856485,0.2525885602901966,2.1490066439723453e-06,0.09667824169097944
9155,PbBi4Te7,150,-2.656625221494254e-05,1.535534203383671,0.010356570815751502,150218.57290280506
9183,PbBi3.94Cd0.06Te7,150,-1.8263287544706203e-05,1.0530018974034143,0.004492679517078666,94555.20062814254
12800,Cu10Fe2Sb4S13,150,0.00017538568844193878,0.2682865849309756,1.1852199651086072e-06,0.0689157287810825
12842,Pt0.97Ir0.03Sb2,150,3.3819165674256204e-05,10.59318054305297,0.01827400642206503,922155.3469758681
9469,GeSb4Te7,150,2.283229525330908e-05,0.6493496282927557,0.017653829163778736,146597.6853189289
9151,PbBi8Te13,150,-3.2665587965925e-05,1.5752965776937082,0.01591366167747905,156624.69266925112
9467,GeBi2Sb2Te7,150,5.907450588488532e-05,0.3934692869722415,0.039382255803759,29601.92626329468
16514,Zn41Sb59,150,0.00012725856344508927,0.14845371444120825,4.636363065206044e-06,0.283336949650406
9468,GeBiSb3Te7,150,2.5854011096604182e-05,0.4790573454420271,0.011030893082814784,52704.90781335335
16789,Bi0.48Sb1.52Te3,150,0.0001409063520821316,0.5868408874195443,0.4175703878630205,71553.63410298264
9177,PbBi4Te7,150,-2.623475556708317e-05,1.7685533305553836,0.009043342601567264,154917.9855933732
16788,Bi0.45Sb1.55Te3,150,0.000148594190648261,0.5557519306015584,0.41613984188775777,59390.737647853624
16787,Bi0.45Sb1.55Te3,150,0.0001660939451130056,0.4784707240285926,0.6597662586385076,61053.006700845704
9150,PbBi6Te10,150,-2.9028597022503192e-05,1.3472532209725725,0.010981908649646531,117053.31168510127
9461,GeBi4Te7,150,-6.804107677643683e-05,0.2656165770999391,0.05362382683280293,21037.5564410334
9184,PbBi3.94Cd0.06Te7,150,-7.465381121530494e-06,3.2240619910815416,0.0014122441273276432,544650.5339447565
10119,MnSi1.73,200,0.00011434795914965457,1.8230644912629679,0.002533718611358612,1766.33706518793
9155,PbBi4Te7,200,-3.554305591468551e-05,1.4505341214981136,0.02435111448149132,139800.03063279198
10123,MnSi1.74,200,7.943022921366253e-05,3.132376003472511,0.037403272134551066,92849.98930477297
12113,Sb,200,2.9910996402913208e-05,28.089055101363936,0.02146845601888245,3370126.361642887
11895,Bi85Sb15,200,-0.00011085710031460142,2.631968756019746,0.16372876480465767,148860.21494710958
13899,CuInTe2,200,5.299039780969591e-05,1.9003791579350933,2.200390261659666e-06,7.445872881933668
13898,CuInTe2,200,0.00033371889319927853,11.627174259499526,5.778705472300885e-05,30.165682566287497
10127,Mn0.97Cr0.03Si1.74,200,8.297444326355659e-05,2.6241195638049186,0.04959040690791183,94506.70052907207
10111,MnSi1.73,200,8.183233388202293e-05,1.8206842653693267,0.009238017102473527,12558.377398516861
14342,EuFe4As12,200,1.7918491659086914e-05,7.861455368873291,0.003122113604379129,382224.7114513142
10112,MnSi1.73,200,8.616208994611966e-05,1.0538626526251047,0.07797240317326208,55342.97341223137
9183,PbBi3.94Cd0.06Te7,200,-2.538573357595657e-05,1.0642573622497675,0.010311865636271596,85148.00508835897
9184,PbBi3.94Cd0.06Te7,200,-1.0909974639909405e-05,3.36145551651422,0.0034390649781024804,485612.96390157955
9150,PbBi6Te10,200,-3.700278178689616e-05,1.271094942597215,0.02361631943406289,109620.41966459627
7488,Cu4SnS4,200,0.0001008366400045487,0.4578613509537588,0.0004925695315094753,110.90083143875471
10092,MnSi1.78,200,8.334163227697211e-05,3.697236401944471,0.15145330433537385,403089.9530911848
14121,CuInTe2 ,200,0.00011987407895039016,62.648568968808156,0.001605312681913869,35462.29296250132
14122, CuIn0.75Ga0.25Te2 ,200,0.00013144082366048343,54.55061635756782,0.001670783841075528,25209.527416199886
10089,MnSi1.73,200,8.70694364459183e-05,2.03216123988744,0.20045574827313511,268667.5503708201
14124,CuIn0.5Ga0.5Te2,200,0.000115889739373867,51.335098933080424,0.0011091947389394367,21198.358684486724
9151,PbBi8Te13,200,-3.7428179278323904e-05,1.4648809806763143,0.027868264251192446,145708.49167021643
10140,MnSi1.73,200,8.137090533921584e-05,2.6895330788626866,0.2011672591791886,408569.4568592426
9177,PbBi4Te7,200,-3.5321817087351646e-05,1.7346082468320765,0.02078976377583009,144522.30893719266
10152,Mn0.95Cr0.05Si1.74,200,8.494886870956963e-05,2.3574255059424924,0.04680370601626265,76449.21422743911
5218,CoSb3,200,6.57932296600765e-05,0.08681350214166188,0.04803850767159133,4817.0857470072415
9149,PbBi4Te7,200,-6.293306038963332e-05,1.4486608671025731,0.07659616554635014,140083.2015031467
5220,Yb0.6Fe0.5Co3.5Sb12,200,-9.061806107959241e-05,0.3956023987788614,0.3084562774841341,74300.71666797991
14248,Ni0.06Mo3Sb5.4Te1.6,200,4.7209957478140835e-05,5.5597610125751515,0.01750459418216617,218328.7640761573
14247,Mo3Sb5.4Te1.6,200,3.321369288457437e-05,4.356671448114038,0.0106325569963887,209955.95744000465
5215,Yb0.2Co4Sb12,200,-6.257056598776179e-05,3.917151076663261,0.0575775626487172,255341.58908695984
12803,Cu10Mn2Sb4S13,200,0.00012756794207960376,0.3153261987023995,1.994149499545826e-06,0.1931989111400739
12804,Cu10Ni2Sb4S13,200,0.00014744238689818755,0.2998775932004797,6.5858764462103016e-06,0.4542374048338413
12805,Cu10Cu2Sb4S13,200,4.897683302453022e-05,0.5933479309497031,0.0015937397145837802,1971.1307522628586
9466,GeBi3SbTe7,200,0.00010365121701636335,0.31944884780213617,0.1220555646694293,19102.250194679218
9467,GeBi2Sb2Te7,200,7.558922355992537e-05,0.4178641183620195,0.06923352089778255,25316.38748560957
12802,Cu10Zn2Sb4S13,200,0.0001391461763725949,0.3697058198032345,1.3677920550054226e-06,0.13058816362530426
9461,GeBi4Te7,200,-8.594226478039829e-05,0.2862759028402126,0.07807627885484156,16799.450418225748
12800,Cu10Fe2Sb4S13,200,0.00018033354630957337,0.3086238236101941,3.098380637646036e-06,0.1470216103313391
12801,Cu10Co2Sb4S13,200,0.00021474966388346573,0.29082164557159884,6.578643794064869e-06,0.20742835256862785
13320,CrSb1.995Te0.005,200,-0.00010845385347126923,11.59266214139068,0.009115969097657356,40720.869522728084
13379,Pb0.99875In0.00125Se,200,-8.437442037413626e-05,3.910264761491781,0.09719682394432816,298156.24319857557
11976,Bi0.88Sb0.12Ho0.01,200,-0.00010305228800360576,3.6502174391207767,0.21217857689546607,408951.49153854337
11960,Bi85Sb12Pb3,200,6.887379587553376e-05,3.015403724980583,0.06326174656298314,195608.84347018774
13402,Cu2Mn0.1Sn0.9Se3,200,1.6130416113049504e-05,5.288297409169678,0.0049513621107146145,457321.53235929797
13401,Cu2Mn0.05Sn0.95Se3,200,2.6547527114927355e-05,4.763893604026412,0.010235319000164785,288595.4080757457
13400,Cu2Mn0.02Sn0.98Se3,200,4.2233108275246144e-05,5.415831799259732,0.01495766716794504,192238.50561699813
13399,Cu2Mn0.01Sn0.99Se3,200,3.74502391800956e-05,4.1657196236974965,0.011469747199604304,143612.95969013486
11974,Bi0.88Sb0.12,200,-9.609368164323829e-05,3.5805560235771905,0.20280006513078933,316115.9144424627
13392,Cu6Fe4Sn12Se32,200,0.00015046684643161542,1.2454185956624064,1.1857521527856654e-06,0.3261351694614056
13384,Pb0.995Al0.005Se,200,-3.6564544668914e-05,5.47123427864077,0.033997712442852115,658974.9483690681
13324,CrSb1.95Te0.05,200,-6.142432752668229e-05,8.975478982604821,0.008380054922664778,90058.61637115211
13323,CrSb1.97Te0.03,200,-7.556771018039418e-05,9.525253243947443,0.009472293859904302,76184.34726666963
13322,CrSb1.99Te0.01,200,-8.819573185029191e-05,10.60933940768075,0.008649483892834592,53837.074564362694
13321,CrSb1.98Te0.02,200,-7.736509149217003e-05,10.04602121703,0.007146979970675417,60750.99257494895
13005,Zr3Ni2.9Co0.1Sb4,200,0.00010194203344334954,2.234723393079186,0.09242726195721844,85380.07079633731
9471,GeBi3SbTe7,200,0.00012244864230143604,0.757076781548198,0.12678453657128766,32007.6832722344
12842,Pt0.97Ir0.03Sb2,200,4.16550783385705e-05,10.554914403271095,0.028193516592721738,756514.9358768584
12843,Pt0.9Ir0.1Sb2,200,2.5568052371680756e-05,8.095312049509339,0.01896797546550202,1049180.2847487964
9470,GeBi4Te7,200,-9.233495012536268e-05,0.6902139883036869,0.06575827170571946,25383.840285872637
9468,GeBiSb3Te7,200,3.553277227349247e-05,0.5387454253770518,0.020010756335402002,42693.220701801954
13177,Cu2Sn0.5Ge0.5Se3,200,8.341686226949749e-05,4.452719694697733,0.008663490637114853,27719.19231602813
9469,GeSb4Te7,200,3.012287609339685e-05,0.7432903184849978,0.02961004484604092,121275.94706102498
13173,Cu2SnSe3,200,9.525450329667424e-05,6.188210442501018,0.003511685187940154,11975.113020701785
13755,Tl2HgSnTe4,200,-0.0004774280144970995,6.1934764727537575,7.873611750789927e-08,0.010697017209312184
13754,Tl2HgGeTe4,200,-0.0001997022655462051,5.896749955547709,8.208071827731805e-07,0.6068171988940582
13753,Tl2CdSnTe4,200,0.00045621436037409074,0.5463094389505322,2.5203615698070986e-06,0.03307757435218881
13752,Tl2CdGeTe4,200,0.0003942485295296388,0.6248004822842691,4.175852234155486e-07,0.008392982518007111
12019,Bi85Sb13Nb2,200,-0.00013636422122293703,2.585568400339444,0.3024585679357631,222705.8200364899
12018,Bi85Sb14Nb1,200,-0.00012382933640797631,2.820219597363941,0.1957216616206351,193894.45973514105
13710,Mo0.9Nb0.1Te2,200,4.834661277516706e-05,6.026164323947282,0.018597593837673843,267602.03290531266
9695,CsBi4Te6,200,-3.589466641986506e-05,1.3714379737089777,0.00043238999729516326,2301.2402958116845
13716,MoTe2,200,2.3371836016194644e-05,6.095682837461878,0.0033942008102279845,155311.9269910881
13715,NbTe2,200,8.948355219977464e-06,3.0972807367547612,0.0009979921503127126,223014.61977573452
13714,Mo0.2Nb0.8Te2,200,9.27149281192104e-06,3.0364745066031453,0.0014594137851869425,222807.98018001122
13712,Mo0.6Nb0.4Te2,200,1.3299150305596007e-05,2.4669039474898655,0.0015421283201559628,109536.97056924408
13711,Mo0.8Nb0.2Te2,200,3.2705496757977336e-05,6.618111918637003,0.009599168524309844,308997.6721629475
11899,Bi85Sb12Pb3,200,5.350376824242675e-05,2.149438491263953,0.036794370524067865,126159.19323705412
11898,Bi85Sb13Pb2,200,6.366713008618046e-05,2.8247018730419584,0.0581284142860251,199136.64083888184
11896,Bi85Sb14.5Pb0.5,200,7.7599481247252e-05,2.2942068943867677,0.05673097702838693,105649.96179551176
11897,Bi85Sb14Pb1,200,7.101973591631459e-05,2.5189329740830644,0.0710083427793215,179702.21049043137
9822,Pb5Bi18Se32,200,3.4359603519100635e-05,0.7242496950117033,0.008806139245335616,27011.43059232975
9821,Pb5Bi12Se23,200,1.9132609523654665e-05,0.8947843520109833,0.003465800030446768,42358.78259715183
9820,Pb5Bi6Se14,200,1.9544208738321564e-05,1.12072507464093,0.0036530768556676594,53590.982303717385
12079,Bi85Sb15,200,-0.00010950085889182326,2.6303846395315142,0.15929888060886832,148543.87546029774
13782,Ba3Cu13.88Te12,200,1.5098306204249036e-05,1.074574974034933,0.0010749469795606642,25335.956938018946
12012,Bi85Sb14Ag1,200,-0.00010677894173236344,1.0512017195167336,0.3673093220860496,169099.67953275723
11956,Bi85Sb15,200,-0.00011398472604677199,2.8786417170411007,0.16381183794718854,178111.17048783108
11943,Bi0.85Sb0.15,200,-0.0001140454345912959,2.3864364947064622,0.06845544145289847,64692.33106965299
12013,Bi85Sb12Ag3,200,-0.00011079341858071675,1.069128594915676,0.27785328907719514,121233.4587983579
11006,CuCrSe2,200,0.0001643856184891373,2.0246187607563275,0.03352296480295179,11149.250222206394
11005,CuCrSe2,200,0.00010478425918335691,2.0164853904192754,0.0956707090575415,78376.73397948217