sampleid,composition,Temperature,Seebeck coefficient,Thermal conductivity,ZT,Electrical conductivity
10484,MnSi1.73,600,0.00016932658503352257,2.101482059959367,0.3622693974353231,44254.33161884792
12420,Nb0.99Ti0.01CoSn0.94Sb0.06,600,-0.00013861360057440149,5.291459091458124,0.18161364716529887,79030.94428150798
10091,Mn0.75r0.15Ru0.1Si1.74,600,0.0001558033438530559,2.525431415377958,0.2193715782382748,38037.427660424284
14050,(Ge0.8Pb0.2)0.9Mn0.1Te,600,0.00013910855199482012,1.5055233119764426,0.7711025051939293,87471.75578387856
16536,Zn4.01Cd0.04Sb3,600,0.00016844518136013527,0.7349908658233415,1.0012550044043445,42911.699056608006
14055,AgPb18SbSe19.928Cl0.072,600,-0.00019749978460593877,0.9412734867743906,0.7736875508416082,27499.5916842533
6320,Ca16Sb11,600,9.523232236681093e-06,1.6787377104697334,3.2963177939317024e-05,1016.9320154784967
5914,K0.6Ir4Sb12,600,-0.00021112092116858284,5.467754387060221,0.11070211198223624,24215.551230380428
12288,Zr0.7Ti0.3NiSn ,600,-0.00022704178921260497,7.299526646415579,0.18839117271700287,41668.939722230934
2376,Ba8Cu4.5Si6Ge35.5,600,-0.00015625007780232839,0.5435559620968462,0.03220610502207322,1242.0229739417364
14056,AgPb18SbSe19.856Cl0.144,600,-0.00018042774873205646,1.0121951007785548,0.7329595732825839,35160.68563218328
14057,AgPb18SbSe19.73Cl0.27,600,-0.00018470043318357093,1.0186279727574858,0.7182230806432128,34673.454735766485
14054,AgPb18SbSe19.964Cl0.036,600,-0.00022498990996683198,0.8727564216398036,0.7320019655726092,20638.77741799113
14052,(Ge0.8Pb0.2)0.82Mn0.18Te,600,0.000178940546889914,1.2236984354333116,0.8090378531252561,50802.37314840974
16537,Zn4.06Cd0.04Sb3,600,0.0001626259274837755,0.7699192936317769,0.8933149698391887,42652.342046207246
1836,MnGe0.00875Si1.74125,600,0.00017930609808335611,2.116653874431869,0.3948060620065753,43320.3830480821
14051,Ge0.8Pb0.2)0.87Mn0.13Te,600,0.00013867193649574747,1.3177592031924903,0.7478653747908942,78147.31965276775
16088,Ag9TlTe5.05,600,0.00029559577161235583,0.2362339115920583,0.7140316724906792,2967.286488994572
12286,ZrNiSn,600,-0.00027827925295763084,10.382205433574756,0.15445533023423216,31633.083140177623
10485,In0.19Al0.81N,600,-0.00015420782670001434,3.5783679215634367,0.026037290947878596,5965.499946179742
13401,Cu2Mn0.05Sn0.95Se3,600,7.305167805133584e-05,2.603652244507912,0.18790378383404968,141007.84113279716
14362,(PbTe)0.15(Ag2Te)0.85,600,-0.00019152128531615384,0.4358669451558632,0.7981313201117467,17742.11115080646
13311,Ce0.7Cu0.3Se2,600,0.0001875503928617516,1.515827410031276,0.06916701590103799,4910.092110746983
10483,MnSi1.73,600,0.00014773828459427137,3.762770119541945,0.1612796933621536,46339.35890460051
16945,AgSbSe0.01Te1.99,600,0.00027229940273426026,0.561705501765563,1.20139938402429,15358.188581861812
15044,(Cu2Se)0.9925(CuGaSe2)0.0075,600,0.0001405148495702612,0.829571032254863,0.7494592440906508,43145.7714936576
16944,AgSbTe2,600,0.00027723456711009126,0.5612345738825328,1.1304625777087272,13884.879662138124
5027,Sn0.4Co3FeSb12,600,0.00014410666911756422,1.5927768302186784,0.2728298716546788,34604.732267337815
49,Pb0.98Na0.02Te1,600,0.0003076532212400364,1.0472765754273359,2.443582826383797,45062.395012093984
16946, AgSbSe0.02Te1.98,600,0.0002474476369668783,0.6100104252530292,1.3057672314109516,21784.574896802944
9278,Sn0.99Ag0.01Se,600,0.00037334420119156494,0.9338841128693032,0.3021039895165392,2872.265566481181
16947,AgSbSe0.04Te1.96,600,0.0002368120445114859,0.5909308727707285,1.1979409495717157,21710.648621712742
1835,MnSi1.75,600,0.00019004241738060617,2.2092954535766993,0.3624776080350018,36955.80267666273
12952,Cu2.15Cd0.85SnSe3.9,600,0.00014571670742532242,0.3516082132071472,0.3832327935080646,9067.52412787955
9276,Sn0.97Na0.03Se,600,0.00024618393893807223,0.8575504201315398,1.2955430580418907,33131.490676229165
12951,Cu2.05Cd0.95SnSe4,600,0.0001727046323767331,0.5054968317182279,0.2180366463562676,4983.157460355349
13310,Ce0.8Cu0.2Se2,600,0.00029042979666160917,1.4239214277381136,0.06465582784141237,1897.3755869625013
12950,Cu2CdSnSe4,600,0.00020040062884337526,0.6152515080919745,0.10823590432281817,2322.164842611916
16096,HT C/C composites,600,2.249071541156082e-05,33.40530880339616,0.0004563930882027964,46198.137311324484
2377,Ba8Cu4.5Si6Ge35.5,600,-6.492382453653947e-05,0.5621260782088058,0.004343125751791632,963.2101635462027
9423,(Mg2Si0.9875Sb0.0125)0.4(Mg2Sn)0.6,600,-0.000298301435911684,1.6469345081123596,0.4190099485905596,12429.87273126478
14036,(Pb0.8Yb0.2Te)0.15(GeTe)0.85,600,9.45136522998772e-05,3.1704345334250728,0.3256392959288555,173185.03490143438
14035,(Pb0.85Yb0.15Te)0.15(GeTe)0.85,600,9.83372542857228e-05,2.784151410387484,0.4053648026922173,174908.59115480224
12929,MoSb5.4Te1.6,600,0.00010040913661094244,3.3889581940365185,0.23738941271150302,108760.02421574744
14037,CuGaTe2,600,0.00023763794529858798,1.8376774279669952,0.142403031763867,7578.305821350651
14031,(Pb0.99Yb0.01Te)0.15(GeTe)0.85,600,0.00011474703275905157,2.8850579973966286,0.4974795804893142,154072.69005392664
8962,CrSi2,600,0.00013255614253608993,8.924119922090119,0.07914768941558681,75758.12594228412
9279,Sn0.98Ag0.02Se,600,0.0003317047906056372,0.9738764930984064,0.34629889022997185,4977.088028766571
10689,In4Se2.5,600,-0.0002809156225884585,0.8665085864569633,0.3115270327298873,6577.9669589489395
14030,(Pb1Te)0.15(GeTe)0.85,600,9.391165925038236e-05,3.5653221750142827,0.32686722136998114,191779.6462615518
14361,(PbTe)0.1(Ag1.9996Te)0.9,600,-0.00018728281341065807,0.33862398824600193,1.0239946681882577,18022.4107178533
16095,MT C/C composites,600,2.0223061068080686e-05,17.004178953643613,0.00041635811299768464,26381.65556030985
16094,LT C/C composites,600,1.4395764767124084e-05,12.857169646143,0.00024771388617786925,23017.00014733104
9280,Sn0.97Ag0.03Se,600,0.00032156596838570225,0.9345598517521868,0.5310038510076212,8238.958934917293
10836,Bi2S3,600,-0.00021903310201439066,0.3585055720280966,0.15826520549759046,1847.675290724784
13925,PbSeTl0.005,600,0.0002118217590562504,0.6974401295511999,0.8399921323954761,20853.28992428133
5146,Sr0.3Yb0.3,600,-0.00013296919277627295,3.5986736454951456,0.6443994096247535,216844.60049423788
15048,(Cu2Se)0.97(CuGaSe2)0.03,600,0.00011926178107654404,1.1952943217209364,0.4805461046903837,60785.005088889346
16346,Sn4SbTe5,600,0.00011719838728338333,2.3971383768683903,0.340551342686548,84343.25457997665
10974,Nb0.99Ti0.01CoSn0.96Sb0.04,600,-0.00014993394638201788,6.203382711861385,0.1492825249936036,67606.32030853366
13035,Mo2.78Ru0.22Sb7,600,4.712326814055451e-05,5.66358306383829,0.100648838172038,376120.9687934945
10229,Fe0.95Co0.05Si2,600,-0.00018537399620928717,3.2285596679322635,0.08113601680834208,12704.969453200638
13927,PbSeTl0.02,600,0.00016202119426199206,0.7565114710288272,0.7062911762432061,32498.45939227315
13032,Yb0.5Eu0.5Cd2Sb2,600,0.0002459088266602859,0.9394913651271176,0.7260750776422241,20265.984669387864
10186,Fe0.99Co0.01Si2,600,-0.00029584028154096265,10.115696708478387,0.03692393757702373,7112.756532748141
14327,In4Se3,600,-0.00034986138066619136,0.5693746011677355,0.5127028245111545,4122.375673532756
13266,Ca0.84Ce0.16Ag0.9Sb,600,9.753526951516162e-05,0.8512491002185397,0.32120468015286724,47656.42295587517
10687,In4Se2.9,600,-0.00037566165667577003,0.7592435487512851,0.2885270495832193,2429.1431252794737
16345,Ge0.5Sn3.5SbTe5,600,0.00012615582556378726,2.0955265263588814,0.30987352645570804,68000.44691797537
538,Ba24Ga4Ag0Ge96,600,-4.38406285432304e-05,3.125775945251617,0.059543793015769876,170867.52295806014
13038,In4Pb0.01Sn0.03Se2.9Cl0.02,600,-0.0002500228483106928,0.6343755070382558,0.9033959918363224,13812.562952844077
13036,Mo2.5Ru0.5Sb7,600,5.885497150803576e-05,5.221436416934972,0.15008399057596575,326866.3373311799
10187,FeAl0.05Si2,600,0.00026759624089654256,5.7677462406308875,0.048438889529301137,6502.630190918531
8187,FeSi2.3,600,0.00023161709004969469,7.973304013780718,0.01873281094607297,4640.32951525841
14328,Cu2ZnSnSe4,600,0.00029143768093549784,0.6460485115312603,0.271263176456781,3131.091749288881
13039,In4Pb0.01Sn0.03Se2.9Cl0.04,600,-0.00024798413052968843,0.6181155525276582,0.8618393679546474,12658.861484061736
13031,Yb0.75Eu0.25Cd2Sb2,600,0.00023420286574161935,0.996218818150982,0.8477113875859418,27860.89325647848
16874,Zn4Sb3,600,0.00018264708797697743,0.7701402347012383,0.5262241825129608,21753.093142993566
16875,(Zn0.999Pr0.001)4Sb3,600,0.00018110684641866503,0.689967614863997,0.5560259907482432,20930.262855585912
526,MnSi1.75Al0.005,600,0.0002123413199048839,2.4224871462456137,0.2320734311027644,20781.00892865044
6262,Sr3Ga0.95Zn0.05Sb3,600,0.0001903307820716205,0.8099255289261174,0.4006910042235369,13304.958424677883
1352,Si83.75Ge16.25P1.35,600,-0.0001709242173277814,3.828197259542392,0.4547481481691446,99313.15915054467
13938,Cu2Zn0.8Fe0.2GeSe4,600,0.00021614100597459632,1.0596903705528335,0.2305286916086263,8715.220631024347
16877,(Zn0.997Pr0.003)4Sb3,600,0.00018128655692634587,0.9794716821641064,0.4212699962210057,22142.763081731908
14325,In4Se3,600,-0.00035985650229870115,0.5694436515344632,0.5538045118445681,4167.05057647371
16876,(Zn0.998Pr0.002)4Sb3,600,0.0001831926264748336,0.6949055423232773,0.6550133453724517,23789.318015505578
10185,Fe0.85Cr0.15Si2,600,0.00023497566410211757,12.689004101214895,0.017298010934450145,6625.622427901259
13937,Cu2Ze0.9Fe0.1GeSe4,600,0.0002857068557031996,1.055196265136563,0.23422856595367605,5046.386747532002
6263,Sr3Ga0.93Zn0.07Sb3,600,0.0001723434502494443,0.8173975766384727,0.4320556309054927,16276.132608793432
13936,Cu2ZnGeSe4,600,0.00030690883134433533,0.8764238021116277,0.15977510958082144,2477.725933225029
13029,EuZn2Sb2,600,0.00016635660199276978,1.5331888614347395,0.706614301888018,70123.74896844295
5901,Co3FeSb12,600,0.00010232266936222304,2.9635664944721536,0.18555042249605572,85418.30567435759
13030,YbCd2Sb2,600,0.0002541734486309541,1.1037698179701627,0.6248243984290787,19160.518449441573
5147,Sr0.3Yb0.2,600,-0.0001450734423175287,3.609823006735012,0.6557719555979933,183624.10151162962
1351,Si86.25Ge13.75P1.05,600,-0.0001585823672177956,4.232213983155303,0.40234036216055197,112849.63974641042
14326,In4Se3,600,-0.00037210351591575276,0.5553283202770077,0.5180355421963715,3715.781346729245
2380,Ba8Cu4.5Si6Ge35.5,600,-0.00011478568601875693,0.7859952945062503,0.08887116048993704,8154.869212223666
537,Ba24Ga0Ag0Ge100,600,-4.044839729139723e-05,3.5557957468139034,0.04785149203105213,183918.44445260102
2306,Ba8Ga16.6Ge28.7,600,0.00016954933128621036,1.4067444175435009,0.5202484583103875,43651.36777920663
13047,In4Se3,600,-0.00017475028427207638,0.4927817456221976,0.2059370838381085,4591.441254890663
13261,Cu2.1Zn0.9Ga0.04Sn0.96Se4,600,0.00010073980492297704,1.9120866085062864,0.20671211071927764,57998.8120226578
10122,MnSI1.75,600,0.0001810301878596276,2.193469894464022,0.4329066147383726,48291.71682074824
14330,Cu2.1Zn0.9SnSe4,600,0.0002111793471308034,0.6700452640512251,0.4723880877798163,11063.595515249775
13260,Cu2ZnGa0.1Sn0.9Se4,600,0.00016069306032912811,1.4541570011547216,0.19543335733118603,16638.546651027962
13259,Cu2ZnGa0.07Sn0.93Se4,600,0.00017392672848546038,1.3730747955160894,0.1930904424476568,13446.226153142738
10973,Nb0.99Ti0.01CoSn0.98Sb0.02,600,-0.00016129729066356963,5.787303226345358,0.13660256995399309,47776.619158880174
5899,Co3.2Fe0.8Sb12,600,0.00011212391257192764,2.8134579632831938,0.27883016192774385,86027.15320777173
13258,Cu2ZnGa0.05Sn0.95Se4,600,0.00019189482433305536,1.1497233952564945,0.2333500328334102,10710.62437823838
10228,Fe0.95Cr0.05Si2,600,0.0003011354663612939,9.41636707977198,0.024333325502449443,4211.237938284934
10191,Fe0.95Co0.05Si2,600,-0.00017441513641948566,4.182384335529195,0.08092668282505125,18543.68682266532
16834,AgPb17SnSbTe20,600,-0.000248670861831751,1.036358893120194,0.5316994732569419,16217.874282547193
16343,Ge1.5Sn2.5SbTe5,600,0.00013831464828137374,1.7991981897412446,0.34221514804946124,53640.229978504256
541,Ba24Ga8Ag2Ge90,600,-6.201066333255407e-05,2.1307411782641883,0.1262521634018262,122026.10929690035
10263,Hf0.6Zr0.4NiSn0.98Sb0.02,600,-0.00013930736616822587,4.3777061904650845,0.534852302448192,189692.24147757288
13264,Cu2.3Zn0.7Ga0.12Sn0.88Se4,600,8.345792949954249e-05,1.8264492766129616,0.15701670039513885,71357.73108087128
6260,Sr3GaSb3,600,0.0003100499541997022,0.76769176141668,0.22530474716163346,2514.1066683439176
13042,Ca5Al1.9Mn0.1Sb6,600,0.00017927486156322378,1.031332186124834,0.2283479447126441,11863.036348950403
10189,Fe0.94Co0.06Si2.00,600,-0.00018580421522480106,3.344381426244235,0.13393264746155892,18573.157063752005
13669,Ag2.0006Se,600,-5.9512510503137954e-05,2.6719769493160843,0.12686515058920855,171513.18238426652
13043,Ca5Al1.8Mn0.2Sb6,600,0.000166989393813573,1.009911647538433,0.21347406414655365,11883.728036896906
5982,Nd0.6Yb0.4Fe3CoSb12,600,0.00014897816263391783,1.8768087236687958,0.7549838231951291,101981.74127435293
13917,PbSeIn0.003,600,-0.00016828257708305882,1.7258818378694367,0.6633087051095905,77350.9693074346
13265,CaCexAgSb,600,3.0333096586429548e-05,3.971397395991368,0.03931723744906896,237373.9744013405
13040,In4Pb0.01Sn0.03Se2.9Cl0.06,600,-0.0002478346327103323,0.6138473695073533,0.6549629417390034,9130.962526390636
13041,Ca5Al1.95Mn0.05Sb6,600,0.00019558298752567663,1.0996622074851323,0.2298407652393215,9322.491850521645
5900,Co3.4Fe0.6Sb12,600,0.0001141418409472884,3.230723633649124,0.20793073294168574,69199.75750634607
13045,Ca4.75Na0.25Al2Sb6,600,0.0001807176175730404,1.0149261870272988,0.3483407453557228,15026.392184513339
10190,Fe0.98Co0.02Si2,600,-0.00020527461705639022,6.177785260794471,0.02096971992067627,5123.93588066643
8186,FeSi2.1,600,0.00023761693687979644,6.775714388864771,0.022433752271269543,4486.94735968896
540,Ba24Ga4Ag2Ge94,600,-5.300176600102097e-05,2.5321530369325678,0.09737860730981834,144050.87737308687
13262,Cu2.2Zn0.8Ga0.06Sn0.94Se4,600,0.00010108655501413216,1.8989104766765967,0.2004868543860471,56718.783978534455
16344,GeSn3SbTe5,600,0.00013211183475402287,1.632928844616706,0.3482352562749052,54300.68401282148
13670,Ag2.0027Se,600,-4.9347803496330594e-05,3.059902662623827,0.1076981516732749,199055.86882809488
14329,Cu2.05Zn0.95SnSe4,600,0.0002174948271198552,0.6570804682368482,0.3911903409292093,8536.572315719932
539,Ba24Ga4Ag1Ge95,600,-4.941744581286427e-05,2.688392292756991,0.08234047173196751,150592.01590286774
9424,(Mg2Si0.9975Sb0.0025)0.4(Mg2Sn)0.6,600,-0.0002686046050836844,1.7559709880343597,0.4412301255416055,17087.36300947003
13044,Ca5Al1.7Mn0.3Sb6,600,0.00016245979229970734,1.0910129824159835,0.19734905138397305,11816.461481767956
13010,Zr2HfNi2.9Co0.1Sb4,600,0.00015187884397247582,2.045927287105246,0.3880869036696594,56964.554905323734
13009,Zr3Ni2.9Co0.1Sb4,600,0.00017419019771993877,2.253336258763375,0.4140806412473049,51529.63586430608
13007,Zr3Ni2.7Cu0.3Sb4,600,-0.00014678971078812116,3.4273728000135297,0.2903418269148275,75064.31605024489
16893,Zn4Sb3,600,0.00017128671775905527,0.7014432980882199,0.8890987514325009,35075.81475063057
9425,(Mg2Si0.995Sb0.005)0.4(Mg2Sn)0.6,600,-0.00016875363259186954,2.4921839734860693,0.9268495422947156,126205.52212893465
16567,Mn28.4Re8Si63.6,600,0.00015460851572678306,1.8452463349231976,0.4883935128164508,61028.27095746713
13272,Zn4Sb3 ,600,0.0001659149371788028,0.5932966339643928,0.7566459514142276,27526.73236349781
523,MnSi1.74,600,0.0001941377118739639,2.1783445589931105,0.19181382297142266,18477.168218166742
10975,Nb0.99Ti0.01CoSn0.94Sb0.06,600,-0.0001388461539538944,5.3602745645682965,0.18154790518418065,79750.61700232766
14358,(PbTe)0.05(Ag2Te)0.95,600,-0.00017228351054452266,0.3841923981482782,0.8563632688058604,20934.008480517663
14733,Cu2Se,600,0.00015750701423890382,0.8698876202396492,0.6149525485886942,31915.40680811234
15047,(Cu2Se)0.975(CuGaSe2)0.025,600,0.00012998209415268313,1.1015462743801478,0.5106199620324607,47795.862787937884
6272,YbCd1.9Mn0.1Sb2,600,0.00020761366406641852,0.6294403439301273,0.8734270127616464,23312.23161719049
6273,YbCd1.6Mn0.4Sb2,600,0.00024736103432958267,0.5956769265658721,0.6035246714447939,10757.743145260709
10124,MnSi1.73Al0.005,600,0.00019556660541229911,2.6586032970998597,0.2688990471769896,31153.16368891127
13012,Hf3Ni2.9Co0.1Sb4,600,0.00015809688398701386,1.75039964362823,0.37960468031793104,44163.751419190135
6274,YbCdMnSb2,600,8.356934974252155e-05,0.960182333767068,0.023504162892016484,4839.206943523165
13011,ZrHf2Ni2.9Co0.1Sb4,600,0.00014173013252999752,1.7146806542339754,0.3367580262187007,47232.41287670746
10231,FeAl0.06Si1.95,600,0.0002098772490739534,6.266264093692003,0.04970368590294033,11784.612695824686
524,MnSi1.72Al0.005,600,0.0002064826594454419,2.247258616760764,0.244262594714969,21458.11654536316
6279,Yb14MnSb11,600,9.95140518358213e-05,1.013401760792979,0.22481062243679376,32334.59611369748
14321,In4Se3,600,-0.0003821736900574728,0.5698106989285854,0.45537198315811406,3215.4452317113964
16566,Mn30.4Re6Si63.6,600,0.00018082790863811665,1.7590877866126524,0.6400257772460407,52963.352808146774
13972,Cu2ZnGeSe3S,600,0.00034915051219752116,0.8961281157255576,0.21874345137226325,2679.9614456709464
13973,Cu2ZnGeSe2S2,600,0.00041104974445953533,0.8658847245329402,0.019817902903951242,169.26912878602658
6281,Yb13CaMnSb11,600,0.00010172736208676968,0.8258811622967459,0.2747094549161051,31025.1545481653
522,MnSi1.73,600,0.00018703923569909531,2.2780476794597693,0.20357525254323808,22093.83483833335
13974,Cu2ZnGeSe1S3,600,0.0004083734469943796,0.9077701365707522,0.021400765169534108,194.15069554262368
13975,Cu2ZnGeS4,600,0.0004192344524216685,1.2397534110858857,0.009820948184327598,115.4578723879483
13002,Cu2.025Sn0.975Se3,600,8.238071737388647e-05,1.6091591853601148,0.14139800016392345,50062.37351180582
13001,Cu2.05Sn0.95Se3,600,8.801706673421213e-05,1.6407671221352649,0.1585546721518067,52995.014283929755
521,MnSi1.72,600,0.00018416724175558465,1.9698808277290527,0.18044036568589192,17466.168033565096
11309,Cu3Sb0.995Ga0.005Se4,600,0.00029203439706880084,1.148100714429472,0.3169590668141117,8489.711574277535
5979,Nd0.3Yb0.7Fe3CoSb12,600,0.00013255560726208653,1.991560674577952,0.6755150622336903,121435.94192707019
10181,Fe0.95Co0.05Si2,600,-0.00017123292921320817,4.229228398322525,0.08080984474067253,19426.724873419626
16565,Mn32.4Re4Si63.6,600,0.0001796955341644071,2.03045442259703,0.4896667992776689,48464.97075677772
12458,In0.17Ga0.83N,600,0.00017057637683480582,2.1174973451033643,0.16713581438183367,17150.91935556314
13000,Cu2.10Sn0.90Se3,600,7.475904870184702e-05,2.695309552242348,0.1808957495492569,138707.03209976215
11308,Cu3SbSe4,600,0.0003077755436866976,1.527876786690122,0.1762348535657276,5213.3841732563205
11311,Cu3Sb0.985Ga0.015Se4,600,0.0002683638866397709,0.8201172180071765,0.4426365267932335,9764.294106441172
13005,Zr3Ni2.9Co0.1Sb4,600,0.0001734890519372641,2.249943588391789,0.4122411242752108,51921.27080469288
16895,(Zn0.99Pb0.01)4Sb3,600,0.00017968172655381101,0.7280720436256001,0.9578298598934664,35634.427780368205
13006,Cu1.975Sn1.025Se3,600,0.0004029799680314912,0.8890882701372973,0.2276066726805896,1961.573309368001
16894,(Zn0.995Pb0.005)4Sb3,600,0.0001780533986429261,0.7375175949038606,1.0544688375924445,40901.72349013661
14511,Cu1.85Ag0.15Sn0.85In0.15Se3,600,0.00012876906736503468,1.1144718969471523,0.5230437161206349,50088.012395302576
13971,Cu2ZnGeSe4,600,0.00030734052576224447,0.8962340400429953,0.28153772051473164,4452.1225958775485
16897,(Zn0.98Pb0.02)4Sb3,600,0.00017627367714095402,0.6359890747348202,0.8121731423000079,28301.274803366403
13275,Zn4Sb3,600,0.00018523385495190051,0.624077822013935,0.964821803750872,29299.66123034698
13004,Cu2.0Sn1.0Se3,600,0.00023166126534288257,0.9986097480289804,0.1565922989299944,4590.612343589558
16440, (Zn0.995Cd0.005)4Sb3,600,0.00018126060608497318,0.68194553230638,1.0436689749002663,36273.60031864271
10182,(FeSi2)0.8(TiB2)0.2,600,-7.403087901494446e-05,7.681457002123508,0.02578748130205292,60238.682882323854