sampleid,composition,Temperature,Seebeck coefficient,Thermal conductivity,ZT,Electrical conductivity
12713,Cu2Ga0.075Sn0.925Se3,500,9.871392182900274e-05,2.078309120809855,0.1526651889887196,55257.9423898738
12378,Fe2V0.94W0.06Al,500,-8.327346081998083e-05,9.048779433316273,0.06812013481405194,198947.0389181331
12377,Fe2V0.96W0.04Al,500,-6.94813763807384e-05,10.459028506242332,0.03674585982614348,187336.33082167435
15841,(SnTe)2.7(In2Te3)0.1,500,9.659381012554154e-05,3.113122911169248,0.3222913679330629,190571.07709027675
10249,Hf0.75Zr0.25NiSn0.98Sb0.02,500,-0.00011661790468045349,3.3721480407207403,0.2234380537497456,103267.77350557988
12376,Fe2V0.98W0.02Al,500,-6.0429351400322205e-05,10.959528911104927,0.026797060034452782,166173.80266536382
15840,(SnTe)2.76(In2Te3)0.08,500,0.00010208346256791564,3.0135378493052225,0.3447235133751749,171460.92966796915
13561,Cu1.9Bi4.60Se8,500,-0.00013057861228736307,0.5158435866142758,0.2362520044134683,14370.218912669661
15839,(SnTe)2.82(In2Te3)0.06,500,0.000106178273496036,3.1886174969660064,0.4028484634812625,187282.64838359482
12919,Co0.87Ni0.13Sb2.88Sn0.12,500,-0.00017925966654463822,4.727024737617169,0.23029825431684156,63127.478332607774
16493,(Mn0.95Cr0.05)Sir,500,0.00016120041665424928,2.4913692649764263,0.18187889325663165,35518.767503461284
15946,BaCu5.9STe6,500,0.00020485398541363948,0.41735449251984535,0.4017590832312829,7723.27274424213
15945,BaCu5.9SeTe6,500,0.00021964998794945,0.5924394638007592,0.569881772761561,13990.720910885866
6351,CaMnZn0.8Cu0.2P2,500,5.7885957163444775e-05,2.2209134194530327,0.0006812743272198108,903.1028434340496
17060,(GeTe)90(AgSb6Te2)10,500,0.00011869313834742451,2.4262203967065403,0.5254634866594735,159871.33769590975
17059,(GeTe)90(Ag0.8Sb1.2Te2.2)10,500,0.00014637600404940554,1.953374425264256,0.6966815817682579,116758.05377785135
14052,(Ge0.8Pb0.2)0.82Mn0.18Te,500,0.00015749378435921617,1.298039301493451,0.5911858051285478,58354.304580164164
6347,Ca0.99Na0.01Zn2P2,500,0.00024356247959345987,2.243860785517404,2.8273698137737415e-05,2.1388865420553107
14465,La2.2Ca0.8Te4,500,-0.00011208994633293633,1.1251484168447334,0.17264635301632478,30921.737951162533
14925,Pb0.71Mn0.04Sn0.25Te1.00,500,0.00013740076235800589,0.8837346126175805,0.014950257649446037,1532.9687271106507
15949,Cu0.75Ag0.2InTe2,500,0.00027528171872543523,1.228591328169434,0.30727835688219723,8191.667091570736
6005,Yb1.05Zn2Sb2,500,0.00020429140646980112,1.3293553651154275,0.4915254476273018,25261.646022135348
489,Fe0.98Mn0.02Si2,500,0.00025912681798156593,7.997585354640544,0.02366821987453336,5638.060743366129
17063,(Ag2Te)50(Sb2Te3)50,500,0.0002846389930048997,0.548058387084126,0.9532024318703214,13029.145745961658
10100,MnAl0.0063Ge0.018Si1.7757,500,0.00016863805311048553,2.6028009314520233,0.23742444505092655,43459.54961342379
10158,MnSi1.729534Ge0.003466,500,0.00015884228401384155,2.115441377981892,0.1597674026657063,26790.876295690734
6346,Mg3Bi2,500,5.3067603648842154e-05,3.7988967805049128,0.07352689095099216,182333.95935057825
15944,BaCu5.9SeTe6,500,0.00021220085421657108,0.5245052929034022,0.5598732058668825,12672.06338877532
17061,(Ag2Te)54(Sb2Te3)46,500,0.000288440158981214,0.5259169879854918,0.6447178150916638,8446.195774953621
6004,Yb1.025Zn2Sb2,500,0.0002113892042351397,1.5968553203920104,0.5120636152085193,31294.40074755784
17062,(Ag2Te)52(Sb2Te3)48,500,0.00028601658203709446,0.5489759445270073,0.8954419301103903,12461.960742218127
16401,NaCo0.9Ni0.1O2,500,0.00012811394149953354,2.132034915619874,0.058885428753185275,15658.495728379332
10526,Ni0.94Li0.06O,500,0.00013564490809351808,3.3870893251565453,0.015720999193566242,5449.185074518009
17057,(GeTe)90(Ag0.6Sb1.4Te1.8)10,500,0.0001562064531450493,1.921324553954519,0.6571431970394405,95903.55379812274
6013,BaGa1.975Zn0.025Sb2,500,0.0002037895121329956,1.0311893599330129,0.33184320851489885,14896.61895296199
10525,Ni0.97Li0.03O,500,0.00015013016778715727,4.183386450799474,0.002729422250426321,1076.7527745074415
14051,Ge0.8Pb0.2)0.87Mn0.13Te,500,0.00011807899385821426,1.4154389961824716,0.5210554759966223,89241.74245192586
14466,La1.9Ca1.1Te4,500,-8.629728457508853e-05,1.1418241385370926,0.1867528104587255,54162.34460222553
14926,Pb0.65Mn0.10Sn0.25Te1.00,500,0.00012903763078881314,1.19303564306431,0.016748565062796962,2520.369650799157
12918,Co0.88Ni0.12Sb2.88Sn0.12 ,500,-0.0001823842701446773,4.42328398980208,0.2360219470392548,55720.544903156086
6350,CaMnZnP2,500,0.00019473400327701002,1.7907709715652809,0.00018594711459397206,17.562077976462614
15951,Cu0.68Ag0.3InTe2,500,0.0002905910790080395,1.1028011962263509,0.28468074303766355,6003.985149476784
10485,In0.19Al0.81N,500,-0.00013723939801056672,3.6491042462894994,0.017963160815282278,6171.277308899213
1836,MnGe0.00875Si1.74125,500,0.00016174758601984242,2.194635798335144,0.28887514757308924,48464.86634554318
10527,Ni0.91Li0.09O,500,6.736609791336667e-05,3.188679431691733,0.009309665902285064,11909.111552601174
12286,ZrNiSn,500,-0.0002908275527362696,10.779869027486267,0.1061693726797344,23258.9799557572
17058,(GeTe)90(Ag0.7Sb1.3Te2.3)10,500,0.000155907506874099,1.874107825436948,0.7042825825638994,98354.89417318042
490,Fe0.98Mn0.02Si2,500,0.00012058200648012617,5.418275966520206,0.011893355980443792,8864.015812788002
17064,(Ag2Te)48(Sb2Te3)52,500,0.0002566429238909174,0.5801635683972658,0.9963870122327252,17514.855634629643
14962,Cu0.08TiSe2,500,-7.33736124914202e-05,1.8208307149538043,0.10801347828928286,86986.6165102477
6006,Yb14MgSb11,500,0.00010734413662091548,0.798404062508979,0.18848954188242006,24442.013562535434
12740,Pb(1-x)Sb(x)Se at nominal compositions. here x is 0.02,500,-7.983154095321617e-05,3.1922041777319516,0.2537312531318341,208205.84245086875
1904,CrSi2,500,0.00012899095110708732,8.28687297492128,0.1022668715788274,101867.85424241179
488,Fe0.98Mn0.02Si2,500,0.00027429194137498845,6.723813959999188,0.03255038420925524,5818.0266555165845
6001,Yb0.98Zn2Sb2,500,7.904696221783155e-05,3.0421572274299478,0.2494991842314363,200301.8353890276
14923,Ag0.95InTe2,500,0.000563094287032245,0.8146670716036195,0.0009344454227660267,4.8017755633199215
12921,Co0.83Ni0.17Sb2.88Sn0.12,500,-0.00014173443291640305,4.93817161471985,0.2379756203173977,132964.1708545607
1911,Al6Re4.7Si4,500,-1.7605598253979527e-05,9.887357860602217,0.010479786416532898,668591.8921414461
12739,Pb(1-x)Sb(x)Se at nominal compositions. here x is 0.0175,500,-8.093567523575793e-05,3.2038572567585457,0.2497172417904047,220754.69653165253
1914,Al5.4Re4.7Si4.6,500,5.183588910138287e-05,11.102960754945414,0.04892772267205701,404354.88892973773
12737,Pb(1-x)Sb(x)Se at nominal compositions. here x is 0.0125,500,-8.646633454101655e-05,3.397219022669884,0.2568233602848337,203054.72573883343
14461,In0.015Sn0.985Te,500,0.00011310816546529385,3.156983421291814,0.29102386351248344,129595.94183934631
15900,AgPb18SbTe16Se4,500,-0.0002135566318551541,0.9842689621798892,0.6360964611613311,31669.680667936664
10155,MnSi1.73Cr0.02,500,0.00016847499766571312,2.4346161912412723,0.16298023634131273,27959.186227164526
1913,Al5.5Re4.7Si4.5,500,5.0458887944263016e-05,11.45363930377558,0.04889191291863003,439880.97359764477
1912,Al5.7Re4.7Si4.3,500,3.0956593610621122e-06,12.141475249755356,0.00025869863574228084,655525.0029932653
14963,Cu0.11TiSe2,500,-7.443591284598183e-05,1.74606383478823,0.1262726599392267,92265.88904876703
14462,In0.03Sn0.97Te,500,9.971134338157324e-05,2.6473050285380366,0.2887924498295945,139682.38350049188
15903,BaCu5.7Se0.6Te6.4,500,0.00013307767697493312,0.4641255906140777,0.10710629223476298,5454.121394921205
1881,CrSi2,500,0.00012998524724344186,5.129383496987296,0.14379433711254375,87306.95060459808
15936,Al2O3,500,8.893483845670611e-05,3.886809990365703,0.16038860038135438,129826.62230732082
14960,Cu0.04TiSe2,500,-6.682421163688637e-05,2.1669182705094823,0.05236857802409951,55140.10946384788
16492,MnSir,500,0.0001855807650185167,2.8289332747374094,0.14414141152743326,24007.973771263834
16494,(Mn0.9Cr0.1)Sir,500,0.00015238554993709217,2.5716454690828416,0.19732813174734912,41836.55071699083
15935, Ni0.05Mo3Sb5.4Te1.6/0.0100Al2O3,500,8.621399100115669e-05,3.9213570650270153,0.14845821986669686,128554.90174758036
17065, (Ag2Te)46(Sb2Te3)54,500,0.0002196630776435238,0.5896559937572419,0.9594235199309116,23536.60183468312
12920,Co0.85Ni0.15Sb2.88Sn0.12,500,-0.00015535169215814983,4.653641010548838,0.2189972334190692,83195.66268962905
14464,La2.5Ca0.5Te4,500,-0.00012249437459927105,1.0876825719524141,0.1968277198070973,26638.476118229915
17066, (Ag2Te)44(Sb2Te3)56,500,0.00019837529965008885,0.7807287602173465,0.7488564902822953,30086.585012124255
6003,YbZn2Sb2,500,0.0002159336819768879,1.7266184268424671,0.5271136116934149,36795.54706651855
15937,Al2O3,500,8.99815622291771e-05,3.8643828198621835,0.15242895829983655,125196.9166433006
15931,Ni0.05Mo3Sb5.4Te1.6/0.020SiC,500,9.340781876386444e-05,3.779760879902032,0.15136030797120625,108324.77515705288
14961,Cu0.06TiSe2,500,-7.822793795642518e-05,2.0583151165126283,0.09931052379752696,73704.09963627762
16089,Ag9TlTe5.1,500,0.000252503500907773,0.2482033054072089,0.5879318097646542,4079.2167876063068
15934,Ni0.05Mo3Sb5.4Te1.6,500,9.782610646764004e-05,4.297677401736158,0.1829700514661024,144219.49936754705
6002,Yb0.99Zn2Sb2,500,0.00011630005632697444,2.233459007604356,0.4180683898300877,114584.41775480176
15932,Ni0.05Mo3Sb5.4Te1.6/0.020Sic,500,9.366857930554028e-05,2.6738556447384227,0.12964671574889908,65519.86260488375
15930,Ni0.05Mo3Sb5.4Te1.6,500,9.314375324034541e-05,4.685114824172729,0.12328236472842685,109465.33943162726
14467,La0.9Ca2.1Te4,500,-7.575682728096335e-05,1.5490192742393345,0.16289921897520504,72762.78555279534
15933, SiC,500,9.62891863913354e-05,2.6002277110434253,0.10926030521028683,55719.00029948998
16964, Zn4Sb2.94In0.06,500,0.00017104983318928798,0.8651634944841196,0.4131822952831139,22549.03072651744
6014,BaGa1.95Zn0.05Sb2,500,0.00022181190330990616,1.0898501735885666,0.3355263311745155,13879.638205511741
10904,(Sr0.9La0.1)2ErRuO6,550,-0.00016392721216553893,0.8343568607538655,5.598142331332124e-05,3.1603194341701357
16401,NaCo0.9Ni0.1O2,550,0.00013280275727484673,2.0406965961407746,0.07864996395234655,15986.043932567998
13682,Tl8.075Pb1.925Te6,550,0.00013838070274581031,0.6943730386110998,0.6909643623700419,41875.43475894834
5928,Bi0.4Sb1.6Te3,550,0.0001721602655101159,1.1996203959212184,0.31609109372680844,23260.956182285456
5114,Co0.975Ni0.025Sb3,550,-0.0001389342856753701,5.9633925838352635,0.05139026129149668,27322.850258191935
13506,K2Bi8Se7S6,550,-0.00017041274927957108,0.5235732735906093,0.36388884235616376,12711.203818265709
5899,Co3.2Fe0.8Sb12,550,0.00010449078447755029,2.8410905433238303,0.23024994992771905,87291.66753186344
13683,Tl8.10Pb1.90Te6,550,0.00013017951198672202,0.7205430380538438,0.7550269102017628,49250.159694184345
5978,Nd0.3Yb0.7Fe3CoSb12,550,0.00011184222154998806,2.38022312406269,0.3628044059732455,131570.1866005484
16342,Ge2Sn2SbTe5,550,0.00013103802301327682,1.4842223700409547,0.3763692416519036,59150.13538682747
13677,Tl4SnTe3,550,0.00023904968964693634,0.37497013622972103,0.7495983541924667,10720.58351195063
10279,Si0.8Ge0.2,550,0.00014921334499404292,2.574558327399396,0.23314632748808706,45502.829581052814
13678,Tl8.05Sn1.95Te6,550,0.00015419221942776696,0.4688534424081615,0.9103572211774438,26259.82337028414
5923,Yb0.2Co4Sb12,550,-0.0002150664503860661,2.545017812824737,0.356437134839466,31920.009930740336
16402,NaCoO2,550,0.00011507339911327913,4.688155534438434,0.07146073673186716,47650.97149137807
16343,Ge1.5Sn2.5SbTe5,550,0.00012664150400431266,1.7233477985046113,0.2873695194853669,56143.41514757292
13630,Cu2.95SbSe4,550,0.0003258573445258061,1.5162098577459906,0.3034724643555403,6958.291172658942
13631,Cu2.95Sb0.99Sn0.01Se4,550,0.00023071657326805518,1.6311709278176652,0.4201847539701225,21123.9133649535
13627,Ag0.68Sb1.32Te2.26,550,0.00015657896994700552,0.983679887860412,0.5182921803411729,44499.50764473248
5912,Sr0.3Ir4Sb12,550,-0.0002897461440718495,6.239970154904957,0.07570945865113006,8458.285408297865
10902,Sr2ErRuO6,550,-9.026138542082786e-05,0.27638269159096146,8.045802504930593e-06,0.4962648665181749
13634,Cu2.95Sb0.96Sn0.04Se4,550,0.00015419748158843391,2.0135685772873617,0.3558555863774012,55170.431525569074
10688,In4Se2.8,550,-0.00030734385016353486,0.8399850906223055,0.2540940833486522,3793.3421477710376
13632,Cu2.95Sb0.98Sn0.02Se4,550,0.0001871864375464027,1.778308244898508,0.43153238548965095,35440.3887216803
16420,Ag0.5In0.5Pb5Sn4Te10,550,0.00023226985894759413,0.9082573585177396,0.32127007842992783,8503.956300635053
13633,Cu2.95Sb0.97Sn0.03Se4,550,0.0001685376478649315,1.8743780068195472,0.4070348096754559,43366.38040507369
10689,In4Se2.5,550,-0.0002717786277402898,0.9133829494270708,0.2720125549249489,6679.456395491189
13561,Cu1.9Bi4.60Se8,550,-0.00014026806935493508,0.5082760733029165,0.2711670789064414,12652.784956049663
13560,Cu1.8Bi4.65Se8,550,-0.00014800205542010096,0.5086474839342734,0.2611493237584112,10873.629144117553
9423,(Mg2Si0.9875Sb0.0125)0.4(Mg2Sn)0.6,550,-0.0003095404563039249,1.4926381165039733,0.4157662346445509,11524.46560821998
8962,CrSi2,550,0.00013455160377719242,9.241563133247114,0.0745028348620737,77703.11371133347
13557,Cu1.5Bi4.80Se8,550,-0.00014375759285833726,0.5693414376095373,0.2214869823032115,11480.276727577173
13556,Cu1.4Bi4.85Se8,550,-0.000123686534078357,0.5659769330364429,0.2630224396118006,18253.792270446484
13555,Cu1.3Bi4.90Se8,550,-0.00010997681280885503,0.6315113050183485,0.24935275280131716,24964.132675037887
13558,Cu1.6Bi4.75Se8,550,-0.00015390667104554166,0.5035126126249385,0.2559481213751912,9892.013975888842
13559,Cu1.7Bi4.70Se8,550,-0.0001406017552564397,0.5399947826826103,0.2700938573986083,13507.253252172632
13547,In4Se2.35,550,-0.0003376700321357121,0.8112864413283734,0.5594297512798048,7129.829363877784
13564,Cu2Se,550,0.00014630326274538326,1.1617241062496595,0.4032618490000561,47519.847763646336
5914,K0.6Ir4Sb12,550,-0.00019464547879659213,5.318726520192276,0.099303681673365,23964.94945009419
13551,In4Se2.32I0.03,550,-0.00032897361608494937,0.7290102671821511,0.7673203558966126,9674.794001973643
9426,(Mg2Si0.9375Sb0.0625)0.4(Mg2Sn)0.6,550,-0.00023910092052792975,2.570082500947508,0.4406528495363167,40753.11138461658
13550,In4Se2.32Br0.03,550,-0.00025879947291184514,0.7865523896731375,0.7470149737050062,17220.398118132565
13549,In4Se2.32Cl0.03,550,-0.00018612105106696145,0.9191817989499566,0.486238788445137,24928.734897384726
5913,Na0.6Ir4Sb12,550,-0.00029002528987211325,5.45719737793602,0.16308215067155793,15893.373400862418
13523,Nd0.98Sr0.02OZnSb,550,0.00017494210428762707,1.203289899840862,0.09586768345864884,5989.4746061576225
13522,Nd0.99Sr0.01OZnSb,550,0.00017886900444485248,1.089658228442791,0.09269933246051296,4986.815310824018
16404,FeSb2Te0.95Sn0.05,550,0.00018670056643970445,2.310361361889516,0.25633404073700705,29431.65790578742
5901,Co3FeSb12,550,9.54535569382442e-05,2.9732211696484505,0.15070250451331102,86820.59420406296
9425,(Mg2Si0.995Sb0.005)0.4(Mg2Sn)0.6,550,-0.00015921319435730638,2.457318338798268,0.8356976021262843,130959.38771514168
13525,Nd0.96Sr0.04OZnSb,550,0.00013881190581358207,1.6933019648774743,0.0824146433567491,11114.071317817345
13608,Ca5Al2Sb6 ,550,0.00034324538855096245,0.9792022856084333,0.048846529318510364,669.8119035110143
13524,Nd0.97Sr0.03OZnSb,550,0.00014982185338786256,1.5945075433596925,0.08682343229137847,9565.721111977557
13669,Ag2.0006Se,550,-6.677375639267867e-05,2.5314666756028408,0.17080315001434604,177780.1902578114
9424,(Mg2Si0.9975Sb0.0025)0.4(Mg2Sn)0.6,550,-0.0002711292416946367,1.6464770758554257,0.4200655092239181,16306.803872716182
16344,GeSn3SbTe5,550,0.00011941272112767075,1.5971571399931983,0.2888095196550481,58815.97111397371
5113,CoSb3,550,9.501215882852531e-05,5.4617600619133295,0.030290208717021268,33944.10488819855
13521,NdOZnSb,550,0.0002227879128080522,1.0214568127440855,0.061771606837572275,2397.0779765773777
16345,Ge0.5Sn3.5SbTe5,550,0.00011474847577436071,2.1943439658123114,0.2502345974782212,75822.04951531475
13668,Ag2Se,550,-4.4218709917895116e-05,3.6902635661748175,0.08566531282621181,259508.76753574453
16403,FeSb2Te,550,0.00020151758754673708,2.446725497826137,0.16305215589818925,17739.52913977836
16425,Ag0.5In0.3Pb5Sn4Te10,550,0.0001256523018864438,1.3435857850665969,0.6200039637689494,88972.83349807023
5915,Ba0.3Ir4Sb12,550,-0.00017011281991039092,3.375189374972201,0.2804850781840393,70800.75573050839
16407,FeSb2Te0.8Sn0.2,550,9.574941242032586e-05,2.1507013814152134,0.2324982221151164,92276.63089301786
13535,Cu2.925SbSe4,550,0.00032534369909793614,1.3439575768574965,0.3524035564040863,7215.9668848416995
13534,Cu2.95SbSe4,550,0.0003263428305195997,1.3377870441575657,0.33098748631596464,6880.79688021118
16406,FeSb2Te0.85Sn0.15,550,0.00012698344844276987,2.332925882087152,0.3026113844768811,77401.24587682309
13612,Ca5Al1.8Zn0.2Sb6,550,0.00013013056296915868,1.1713537711600026,0.19735102013310346,21911.446859265536
5910,Ba0.3Ir4Sb12,550,-0.0001712010302145752,3.3714371895683666,0.2734051450211857,67409.33941431229
16422,Ag0.5In0.425Pb5Sn4Te10,550,0.00020129933897190827,0.9346859001972802,0.5922490002919002,22884.778735502394
5908,Ir4Sb12,550,0.00013098011186151348,8.823688475995326,0.13994991497777812,119199.75876295865
13609,Ca5Al1.98Zn0.02Sb6 ,550,0.00022154927528289346,0.8809646604958983,0.09900484693772768,3367.998821900512
16424,Ag0.5In0.35Pb5Sn4Te10,550,0.00013490646582886323,1.3572158557065996,0.5648438929220336,74577.36732067776
13528,Nd0.92Sr0.08OZnSb,550,0.00012927972099382288,1.8565028477988568,0.09225061500951166,16066.695132407654
13527,Nd0.95Sr0.05OZnSb,550,0.00013413197176169393,1.7181207902211832,0.08385368691911009,12560.892810312851
13526,Nd0.94Sr0.06OZnSb,550,0.00014298937961843157,1.5316354237132763,0.10974312563752993,13046.845753411291
13529,Nd0.93Sr0.07OZnSb,550,0.00012714273082393922,1.7715184123060217,0.0987731601126511,17233.7583861489
16405,FeSb2Te0.9Sn0.1,550,0.0001443018935882391,2.388420716046842,0.2736169609654746,53469.85008784456
9439,Pb5Bi6Se14,550,-0.00016993174819402842,0.4872112494957492,0.2993958803258307,9106.340688034446
16388,Ca2.8Yb0.2Co4O9,550,0.00014639987698365816,1.0690385547157115,0.08627918563088523,7456.649380183067
5909,Ba0.1Ir4Sb12,550,-0.000204721943573522,4.261820091471638,0.1578478225947486,30248.821979696437
16423,Ag0.5In0.4Pb5Sn4Te10,550,0.00015217777462020395,1.2570570009801347,0.6034078545428863,55801.888804571914
16341,Ge2.5Sn1.5SbTe5,550,0.00013600266108011603,1.471823587719704,0.3298667147527888,47723.9906992596
15877,In4Se2.9Te0.1,550,-0.0003797611864413319,0.9256203966003476,0.1995086275940447,1984.100300510236
1918,Mn2.95Cr0.05Si4Al3,550,-0.00012142402970296968,4.698065139555938,0.1807326892905512,104708.94215004335
15883,In4Te3,550,0.00019978411547923733,0.7056271424323932,0.021966639320387147,718.9069533345183
14458,In0.03Sn0.97Te,550,0.00010429366054758658,3.1871359111218953,0.3771171524450827,195599.48945059878
1917,Mn3Si4Al3,550,-0.00010575916671023042,4.353952607191522,0.16106424268363334,113994.55360514724
15888,Ga7Sb2Te10,550,0.00011608307633560471,1.2160612606989212,0.12108617318209505,20602.8607911209
15889,Ga7Sb2Te8Se2,550,0.0002243234309460964,0.94668670354896,0.7106019724617609,21037.37253324087
15890,Ga7Sb2Te5Se5,550,0.00016445892853067902,1.0671796961270466,0.5705226370393331,36904.20569678948
1916,Al5.1Re4.7Si4.9,550,-0.0004170968927905989,6.7751610596958125,0.03640183132981471,2577.5450121939652
9616,Mg2Si0.4Sn0.6,550,-0.00017725943640891685,3.264630511986556,0.7451301216109433,134269.17595826302
15851,(SnTe)2.88(In2Te3)0.04,550,0.00011019344775281221,3.0310689607860803,0.4431063439643827,200787.60953306235
15853,(SnTe0.996I0.004)2.88(In2Te2.988I0.012)0.04,550,0.0001188111824948627,2.6674704278134795,0.4739837408524125,151817.12867707972
10541,CaMnO3,550,-0.00034822685049761936,3.3891717779627464,0.02493910924150273,1266.247009072433