sampleid,composition,Temperature,Seebeck coefficient,Thermal conductivity,ZT,Electrical conductivity
6529,Ti1.031S2,600,-7.748144866402893e-05,2.966719685285763,0.12995925186398466,122197.43753314305
10107,MnSi1.73,600,0.0001730707287587857,2.9781891819071467,0.18176039395563667,30119.86645218173
15070,CaB6:SrB6=75:25,600,-0.00010497058442055372,12.217576159491045,0.12031250573616115,194084.17172103733
15487,Mg2Si,600,-0.00015401420334303198,3.9908088110540496,0.3832834258082791,90410.13715991733
6528,Ti1.008S2,600,-0.00013839488224418183,2.571767491739228,0.2930500898668433,68385.8088030046
4616,La0.3Co3.68Ni0.32Sb11.84Te0.16,600,-0.0001749621982212372,1.9789810991811845,0.8105556481913306,80080.8285430581
15021,GeIn0.6Sb5.4Te10,600,0.00013549700111132652,0.5634360534966688,0.5967345519372691,29941.740298897315
5223,In0.3Co4Sb12,600,-0.00020043557739842896,2.973726979788021,0.8180127346196244,100378.2261101576
11938,LaPdBi,600,5.7599412258706335e-05,5.724587327362897,0.0687824014163606,196755.0331930769
17249,Zn4Sb3,600,0.00017168518360220512,0.6499379922975497,0.7374570757941871,31029.935137005097
4520,CoSb2.7Te0.3,600,-0.00011939852255964551,4.573619664409925,0.22295803976050144,124079.93948723465
17250,Zn4.08Sb3,600,0.00016920925604620672,0.6662981095257865,0.7787580370338665,33898.810517881124
15023,Ag3.8Mo9Se11,600,0.00014570247122457831,0.8078864889766882,0.4266756087370842,24144.619827304232
5224,In0.3Co4Sb12,600,-0.00018492020406934048,2.956279859332642,0.8120881886609136,138499.31836225558
10137,MnSi1.733,600,0.00018271044370804943,2.256651396781068,0.29514572822411744,33252.398936093
11811,Cu2CdSnSe4,600,0.00020012811026512943,1.1355917844495451,0.1691443070910207,6638.785283686885
17253,Zn4.32Sb3,600,0.00018587841686107007,0.7079405172550532,0.9282615090202702,33980.25222675629
6531,Ti1.031S2,600,-6.932215300592199e-05,2.4290668030138147,0.11255494314556128,104611.9674397664
15024,(Cu/ Fe)Mo6Se8,600,5.844035677987334e-05,1.4824333758289865,0.14919434308367596,93066.71607488387
17251,Zn4.16Sb3,600,0.0001902013675233514,0.6873598903072677,0.8852021299315831,30873.213822317968
17252,Zn4.24Sb3,600,0.00018715588674561817,0.691497893423073,0.9170597762345,32549.8202173335
10136,Re0.04Mn0.96Si1.8,600,0.00019249477301104952,2.3652887294540688,0.3940667002873328,41924.198341565854
12525,Ti9Mn2Ru18B8,600,4.335376115876496e-05,9.443084419586901,0.04822449347028586,387919.6994379602
13535,Cu2.925SbSe4,600,0.00030982197496679355,1.1598785044009092,0.4131996243855029,8569.645511186045
179,Pb0.95Sr0.04Na0.01Se1,600,0.00011602830727979138,1.5277567494183488,0.4350222353889862,70664.40423069207
10138,MnSi1.73Al0.0025,600,0.00019023834313736722,2.678318938431014,0.2779219625713573,34279.762163022446
15025,YbSb2Te4,600,0.00010905573676819496,0.7353138154066218,0.3869725356070524,36336.960880258186
12526,Ti9Fe2Ru18B8,600,3.370455185960025e-05,9.966758805269087,0.022326025054293156,306186.03047013085
15488,MnSi1.73,600,0.0001805868891324864,2.5043864334872072,0.3227002691914653,41349.13570708953
160,Pb0.993Ga0.007Se1,600,-0.00010435683211596278,1.817095198886588,0.3813671468799039,106054.21509717847
12524,Ti9Cr2Ru18B8,600,3.6368324476942204e-05,9.430269789671764,0.028764960106216243,306982.86717998923
12523,Ti10Ru19B8,600,4.1418155018008665e-05,12.304113840837527,0.04268553542706615,477300.4679681269
15071,CaB6:SrB6=50:50,600,-0.00010978893054094944,11.299758934813086,0.1397239152870356,193445.82709268449
14244,IrSn1.5Te1.5,600,0.0001825578703766311,2.5160722883102267,0.17952358180290792,18880.176787406217
15022,Ag3.4Mo9Se11,600,0.00011325439398366279,1.2126343710955307,0.2915115820781399,39330.93715119944
17254,Zn4.40Sb3,600,0.00017025362297229719,0.7669384595152535,0.7994262592069611,38477.90231612748
327,Pb0.98Na0.01Te0.88S0.12,600,0.0002608110056348793,1.2200085180875266,0.8856797108730755,26475.031234179507
13449,Ca2.85Na0.15AlSb3,600,0.00019218547585899329,0.9791069442207522,0.14631695073817122,6464.46212698929
16421,Ag0.5In0.45Pb5Sn4Te10,600,0.00021433287493018125,0.8809406869134576,0.3718347858006963,9880.21048473188
14243,RhSn1.5Te1.5,600,0.0001325980260309775,3.1503530185152933,0.23415334265039184,60733.71410580277
5995,Eu11Cd6Sb12,600,0.00014365800865228292,0.6808695040272525,0.17710957552555406,8901.87831440105
5230,LaFe4Sb12,600,0.00011674985319070476,3.237088966107506,0.404969278852122,155080.53714241146
15075,ErB22C2N,600,-1.3770452934585666e-05,1.4907807978719227,1.6081270744202516e-08,0.2107106336574982
11025,NiZrSn0.98Sb0.02,600,-6.341394399377471e-05,13.821410756980162,0.048781511724020114,271475.01079984603
6414,Mg3Sb1.7Pb0.3,600,0.00023773131728508246,0.3281450289024496,0.21522380872409644,1975.766626947848
10141,MnAl0.0054Si1.7946,600,0.000200551818701519,2.5496940227142395,0.3297671422857017,34841.03009828723
10256,Hf0.75Zr0.25NiSn0.98Sb0.02 ,600,-0.00012528797005016015,3.2192110040412016,0.283325412362094,96664.06105510711
2056,Fe0.92Mn0.08Si2.5,600,0.00023048759533746675,8.584856002264132,0.021135805675485037,5692.531702895503
14219,Mg2Ge0.98Bi0.02,600,-0.0002594434334574887,2.935077399058787,0.1735970151559673,10561.814718219903
299,Pb0.95Ca0.04Na0.01Se1,600,0.00012295622335015244,1.5960598373150738,0.5134726990274006,82345.8283452543
10142,MnSi1.733,600,0.00017675547008884384,2.388535533831901,0.17872058627647106,22772.426597492147
10105,MnAl0.0063Ge0.027Si1.7667,600,0.0001975587398011458,2.5274816055125213,0.3637618467081548,39261.00430714892
10255,HfNiSn0.98Sb0.02,600,-0.0001177692777642168,4.562910741841486,0.20521380545065998,109005.74956863311
2055,Fe0.92Mn0.08Si2.3,600,0.00023762083717975742,7.94936463563775,0.02421679554608716,5682.360725181624
11026,NiZrSn0.97Sb0.03,600,-6.630944220913161e-05,11.853306633719539,0.05020756714964386,234764.3458052177
5231,La0.9Fe3CoSb12,600,0.0001427218434158844,2.3575535224195545,0.4958344805799238,92103.74888384297
9359,Mg2Si,600,-0.00029608747136373233,3.732964605704323,0.04722304874675799,3327.7227553946136
11027,NiZrSn0.95Sb0.05,600,-5.5051428005308006e-05,12.550882144467929,0.03358702905248443,223437.20852659855
266,Pb1.003Se1Cl0.006,600,-0.0001364572241759943,1.7232848780186494,0.5063344343295696,78099.85453930567
17218,Zn4Sb2.98In0.02,600,0.0001802098707850941,0.7159810311042444,0.7937989896839788,29243.886662864865
15073,SrB6,600,-0.0001367419316573903,19.011043997851342,0.0983195590419788,144241.72072166586
17217,Zn4Sb3,600,0.0001753899816972135,1.0231693942787607,0.5128712389914826,26514.92347449709
2291,Ba24Cu4Ge96,600,-5.297089082817423e-05,2.8206088539026433,0.06256608992332043,111828.69231386553
15017,Ag9GaTe6,600,0.00027543298805958645,0.3737936053493076,0.31589778706132665,2742.794401875542
2293,Ba24Ge100,600,-3.979413083148061e-05,3.5545787942921643,0.047637000738001485,180637.0679667892
10258,Hf0.5Zr0.5NiSn0.98Sb0.02,600,-0.00012024322469117431,3.3163098989722624,0.28627009681709303,111191.68200817301
270,Pb0.98Na0.02Te1,600,0.00022686149891929503,1.722065499343735,0.8925329738806808,49773.83351939405
14223,Mg2ge0.98Bi0.02,600,-0.0002584574741357548,2.9297112762220725,2.128418570769227,155579.5175331115
6415,Yb11Sb9.3Ge0.5,600,2.3543922105426762e-05,1.564063992834305,0.012923211126968998,59360.62177483843
10257,Hf0.6Zr0.4NiSn0.98Sb0.02,600,-0.00012501678241946045,3.9834076534552096,0.3546278646353339,145665.89140874924
6770,PbS-ZnS,600,2.1683612395706227e-05,1.507456678426191,3.1200638245916545e-09,0.0166722339933975
2290,Ba24Cu2Ge98,600,-4.568902058516032e-05,3.3280933084974964,0.04946672275603828,150460.25802797332
11024,NiZrSn0.99Sb0.01,600,-7.147010989899293e-05,13.863606905420921,0.04936348233320985,213149.5883825007
11939,GdPdBi,600,6.651012920419712e-05,5.861486601496688,0.07353197378103854,146328.58699589968
9358,Mg2Si0.975Sb0.025,600,-0.00013107537079289,4.078325312223514,0.30642186856603504,114810.5773563244
5991,YbCd0.4Zn1.6Sb2,600,0.0001018055239416694,1.932428982466801,0.43010377469252464,129306.99205760713
13534,Cu2.95SbSe4,600,0.00030855413520625337,1.1456595789266002,0.389653841293822,8196.174581026926
10106,MnSi1.78,600,0.00019177183359173216,2.3175977422521368,0.10959748715812387,11511.12484522615
14224,Mg2Ge0.98Sb0.02,600,-7.426822253493354e-05,7.86491582136517,0.16501547076632953,392158.3177821146
393,Pb0.95Ba0.04Na0.01Se1,600,0.00012321926132178218,1.4201588452567044,0.4820343805174282,64609.86126039247
15837,(SnTe)2.94(In2Te3)0.02,600,0.0001255213221459759,3.3846786636489914,0.5516538645044826,172246.09317393895
478,Fe0.94Ti0.06Si2,600,0.0001457115731506411,9.064034888269637,0.001605947487076732,1105.9188887901234
15838,(SnTe)2.88(In2Te3)0.04,600,0.00011472359574285368,2.9266791176455373,0.5889614446593456,189179.2447154006
13526,Nd0.94Sr0.06OZnSb,600,0.00014989718893002502,1.448145424170801,0.13227433665365315,13337.736855659077
16406,FeSb2Te0.85Sn0.15,600,0.00013711933637164828,2.2853703295606325,0.3610665891971088,72688.35665378801
15839,(SnTe)2.82(In2Te3)0.06,600,0.00011240606674251238,3.1258498646185044,0.4602574939766311,170001.47221993827
12713,Cu2Ga0.075Sn0.925Se3,600,0.00011679783689855305,1.6838783241081683,0.23054487564041265,46298.59383239273
1926,CrSi1.96,600,0.0001824408272049409,7.815192858114202,0.09123941322727247,35704.82160594543
15829,TmCuTe2,600,0.00013549456705251296,1.058792638074762,0.464336559954209,46724.184518141614
12711,Cu2Ga0.025Sn0.975Se3,600,0.0001680857436113062,1.3849651902430509,0.25358942258704764,20518.531823990583
12712,Cu2Ga0.05Sn0.95Se3,600,0.0001346721435224715,1.5436864093092133,0.2399012239570753,32917.30831641558
13388,Cu2.1Mg0.9SnSe4,600,0.00014053712508754355,1.2060128734120978,0.27739123423735523,27668.57844532852
10543,Ca0.90Dy0.05Yb0.05MnO3,600,-0.0001021205703476336,2.0568101176007376,0.09159140554049816,28446.965962114657
14451,(Ag0.785Cu0.2)2Te,600,0.0001415179528264208,0.4897119021772287,0.8398288126163199,33129.640997179085
203,Pb0.96Ba0.03Na0.01Se1,600,0.00013444845113793326,1.3748478090632554,0.5270000658958323,59927.22089132591
12715,Cu1.94Al0.02Se,600,0.00016646113553895294,1.9707744676405183,0.25615178378674386,28361.737285073905
10154,MnSi1.73,600,0.00023745148690522798,2.2917207266190243,0.285009487404452,19307.23009556101
13386,Cu2.05Mg0.95SnSe4,600,0.00016726563006370256,1.0730227373979604,0.20797157006661934,11893.545659241103
15851,(SnTe)2.88(In2Te3)0.04,600,0.00011436626465626616,2.954430286898277,0.4986078912422658,187981.8439220904
10541,CaMnO3,600,-0.00033820529002872766,3.3440003182683977,0.028724093439867007,1345.9292056846375
15853,(SnTe0.996I0.004)2.88(In2Te2.988I0.012)0.04,600,0.00012381300770015748,2.60415373661696,0.5452827482029069,144889.76135800357
13387,Cu2.075Mg0.925SnSe4,600,0.0001325200746357405,1.1442548262311534,0.14498932596775188,13583.932275437382
1924,CrSi2,600,0.00019686592271466792,8.74557078276787,0.08905448429235846,33492.811738791985
15840,(SnTe)2.76(In2Te3)0.08,600,0.00010666267121847571,3.0424507352817907,0.3857046371975406,159469.93296236926
10542,Ca0.96Dy0.02Yb0.02MnO3,600,-0.00015277670718647643,1.8426467238898687,0.13821407581141013,16619.952958261398
15841,(SnTe)2.7(In2Te3)0.1,600,9.972085983674105e-05,3.1652563327865315,0.35430049166980393,176610.44915125714
1925,CrSi1.98,600,0.00018728985248409893,7.977647605459317,0.09516498956525052,36072.17316855371
12710,Cu2Ga0.075Sn0.925Se3,600,0.00011711096382356384,1.4901235219737892,0.25886839180746696,45806.41637258855
1927,CrSi1.94,600,0.00016142086081416182,7.990847181226415,0.08457334689245531,43227.067529899716
1929,CrSi1.9,600,0.00014387852105164482,8.753509643322094,0.07897084859458232,55655.21169056228
14980,Cu2ZnGeSe4,600,0.00016498518137438584,1.0728163196164526,0.13716640636943386,8961.475282452533
16495,(Mn0.85Cr0.15)Sir,600,0.00014100359688355469,2.6154330746643843,0.2402230642697655,53618.22381277246
14981,Cu2ZnGe0.975In0.025Se4,600,0.00013478215170509975,1.6838366599395913,0.15722535991414005,23483.92122846572
6006,Yb14MgSb11,600,0.00013082981247752472,0.779991912381272,0.32400406717088004,20862.31145599786
10101,MnAl0.0063Ge0.063Si1.7307,600,0.0001630756595770958,2.5228377127735317,0.25509383084933823,40332.926262612375
1928,CrSi1.92,600,0.00015343339105933682,8.44676206255389,0.08122873164866201,48574.56444971179
12708,Cu2Ga0.025Sn0.975Se3,600,0.00016865714626677303,1.2730536383818,0.2557156197023764,18311.21663102094
10544,Ca0.84Dy0.08Yb0.08MnO3,600,-7.856127117656136e-05,2.1553035060353416,0.056745992367936635,33014.2608122513
12709,Cu2Ga0.05Sn0.95Se3,600,0.0001344581062727573,1.3678914515338705,0.2601654992260701,31737.853910544443
14979,Tl8GeTe5,600,0.00016585431435775982,0.2365885223913351,0.4588462098669029,6095.143923526584
5159,Sn0.25Co4Sb12,600,7.827039191397082e-05,2.6883285626450246,0.10551343489141247,69006.03323231847
12707,Cu2Ga0.075Sn0.925Se3,600,0.00011325723317743327,1.6344028875792436,0.3038149611594134,63421.30619593085
10153,MnAl0.0063Ge0.0108Si1.7829,600,0.00018640905176177543,2.74187128387707,0.30760172509068706,40452.986074599954
5986,YbCd2Sb2,600,0.00019433165099220484,1.2106071720648397,0.6571177398703332,33913.93106633723
10545,Ca0.8Dy0.10Yb0.10MnO3,600,-6.667630563836138e-05,2.5865079908561803,0.03893319301734261,35005.27134419612
9485,(GeTe)12Sb2Te3,600,0.00021042522083929632,1.5105803484897686,0.9349061799478924,49134.779055736035
12706,Cu2Ga0.05Sn0.95Se3,600,0.00013380909947031844,1.3891558748386834,0.2889437717664801,35865.80874125227
16407,FeSb2Te0.8Sn0.2,600,0.00010472163685204308,2.111615699324422,0.28413242098082625,88632.44890886632
16496,(Mn0.8Cr0.2)Sir,600,0.00013262251608767684,2.606573756644824,0.2615152957236414,63019.894301881795
12716,Cu1.94Ga0.02Se,600,0.00012685728936826787,2.150515325761234,0.2779443203088811,54330.76332823164
16446,Zn4Sb3,600,0.00015510337655710906,1.132933336142836,0.6250814152563584,49301.51555409451
12728,Cu2.09Zn0.91Sn0.99Se4.00,600,0.0001063163783953098,2.249901498297357,0.12234981406118922,37779.22129401198
484,Fe0.98Co0.02Si2,600,-0.00024360330073568487,6.303989858124869,0.04661147563076503,8252.599522606859
14458,In0.03Sn0.97Te,600,0.00010746304768236124,3.081330616961246,0.4177603993282403,181780.75636902198
9616,Mg2Si0.4Sn0.6,600,-0.00018611341658345308,3.2196872714246982,0.8248767840904602,123451.71456235672
17282,Zn4Sb3,600,0.00017349254073405676,0.7598745283032713,0.8548338646720153,35633.283816823256
1917,Mn3Si4Al3,600,-0.00010670097487669436,4.182380375118669,0.1789418863284313,109558.86239204946
12729,Cu2.05Zn0.95Sn0.97Se4.03,600,0.00010430423953098291,2.0070028876323347,0.13794329919465306,38570.68909042647
485,Fe0.98Co0.02Si2,600,-0.0001312126633975866,4.122858082720919,0.02198032466453553,8772.628456649012
12725,Cu2.07Zn0.95Sn1.00Se3.96,600,0.00013141017981698334,2.0925917099806703,0.1785708116800136,31795.156980941418
15878,In4Se2.8Te0.2,600,-0.0004000644888679155,0.5167217574543974,0.3097821636721718,1859.5533922658685
1918,Mn2.95Cr0.05Si4Al3,600,-0.000125037716365754,4.836834805464042,0.1987508402952418,102479.47962209793
12726,Cu2.04Zn0.98Sn0.96Se4.00,600,0.00012764016904947675,2.4311161335980485,0.13653914768060146,32192.769789985192
12727,Cu2.14Zn0.97Sn0.94Se3.94,600,0.00011789538104707784,2.2293094878419653,0.11244995628960784,30279.205674672878
13525,Nd0.96Sr0.04OZnSb,600,0.00014675520677504664,1.5877978836574442,0.09970112728529366,11189.978013774375
15877,In4Se2.9Te0.1,600,-0.00038198652275682514,0.8766058236305719,0.2402543946463392,2803.6269218140965
16404,FeSb2Te0.95Sn0.05,600,0.00020369397877324945,2.146982190909444,0.3070532614848417,26462.50246442333
487,Fe0.98Co0.02Si2,600,-0.00015976257604194676,4.322796500871624,0.03562017094252251,10054.475751684706
486,Fe0.98Co0.02Si2,600,-0.0001433847541335232,3.950259355493863,0.028844957609206214,9237.156741299044
15888,Ga7Sb2Te10,600,0.00012802980375795414,1.275105366076367,0.1366437100808286,18135.942660814937
15889,Ga7Sb2Te8Se2,600,0.0002383010922004634,0.9797088974537048,0.865454295143169,23401.218929793868
12732,Pb(1-x)Sb(x)Se at nominal compositions. here x is 0,600,0.00020489406233713855,1.4628638443052258,0.31038092736635225,18867.46325744962
4516,Co0.8Ni0.2Sb3,600,-7.721226612524653e-05,5.435228017386911,0.08164383318367903,135343.5052521827
15890,Ga7Sb2Te5Se5,600,0.0001796996494252194,1.0933995975894006,0.6863767332012481,37149.33203298463
1916,Al5.1Re4.7Si4.9,600,-0.0004022541347648559,6.745987718527784,0.03878312329489112,2694.85897439986
15852, (SnTe0.998I0.002)2.88(In2Te2.994I0.006)0.04,600,0.000119417673906117,2.8077856019802256,0.5053443933038249,162426.61524517386
13385,Cu2MgSnSe4,600,0.00031172014405794285,1.273594643477721,0.14662041889197308,2876.6325015206066
10109,MnSi1.69834Ge0.03466,600,0.00017016429805228854,2.405057670553252,0.2106179119829315,29156.31638080118
12719,In4Se2.67Cl0.03,600,-0.0001898496961699076,0.6269854911620362,1.1608375812395575,31982.303054392305
12718,In4Se2.32Cl0.03,600,-0.0002904123863083933,0.776914177934697,0.8698537295348124,12986.6869827108
17281,Zn4Sb3,600,0.00016575622015092733,0.7914772109721434,0.8464966880788483,38924.95923957682
15856,(SnTe0.99I0.01)2.88(In2Te2.97I0.03)0.04,600,0.0001243498813915581,2.3968842123768286,0.4302970268344899,99344.1472057047
16425,Ag0.5In0.3Pb5Sn4Te10,600,0.00013949519466979228,1.273019164433388,0.7303609191760441,76992.96687184344
15854,(SnTe0.994I0.006)2.88(In2Te2.922I0.018)0.04,600,0.00013021984915303353,2.42174885762665,0.5860278202179736,130376.12450598287
15092,La2.72Te4,600,-0.0002357174628964325,0.6333984708332047,0.34474832862638377,6550.046958310308
14455,SnTe ,600,6.910264855800681e-05,5.300964378452467,0.21055252117364376,355524.9171239353
12717,Cu1.94In0.02Se,600,0.00018314176648632883,1.2026573126476623,0.4432273627220651,23733.407576989444
15855,(SnTe0.992I0.008)2.88(In2Te2.976I0.024)0.04,600,0.00012829749324286616,2.4372504296267774,0.4995114297812714,112759.0677086902
14457,In0.015Sn0.985Te ,600,0.00011406768990360017,3.2588306827515274,0.4339614527982486,175161.6382089509
483,Fe0.98Co0.02Si2,600,-0.00022891414578711007,5.920372031661925,0.03437464493081597,6472.777927329713
12415,NbCoSn0.92Sb0.08,600,-0.00011416933996799238,6.298238867150523,0.1607623814529343,126366.26345736248
16405,FeSb2Te0.9Sn0.1,600,0.00015762488436039132,2.2879049782126515,0.3289566207337851,50136.012666522
12723,Cu2.23Zn0.91Sn0.90Se3.94,600,0.00032160924360241487,1.0983770043694587,0.1695436865338833,2679.3713051481204
12724,Cu2.07Zn1.05Sn0.92Se3.93,600,0.00016656930094610052,1.948394078037436,0.17110308304083086,18136.626233869367
15869,Cr1.94Ge2Te6,600,0.0003574271173857908,1.4411032027901576,0.18503810509766697,3758.800240217224
15867,Cr2Ge2Te6,600,0.00037801778157242735,1.7403328870114263,0.18857986101664675,4395.636098555269
14456,In0.005Sn0.995Te ,600,9.122535210545698e-05,4.070716013488129,0.3278005527233188,246539.33426908968
4482,CeyFe4Sb12,600,0.00012827450444711673,2.88318796632254,0.5784891461217756,163687.00548588837
12673,TiNi(1+y)Sn. Here y is 0.02,600,-0.00019707466687405009,4.696485747434755,0.2965247009546086,52450.61841674929
9612,Mg2Si0.4Sn0.6,600,-0.00019727831121464686,2.7012476321372785,0.756918651275305,84144.45291672798
14992,Cu:Co:Sn:Se = 1.82:0.16:0.76:3,600,0.00021844801053359542,0.7830889044646884,0.3130355787412921,8105.081670608843
12674,TiNi(1+y)Sn. Here y is 0.075,600,-0.00016767638090815765,4.5737044777718525,0.3329011804278927,89139.0128577205
12671,TiNi(1+y)Sn. Here y is 0,600,-0.0002168160961475001,5.070801854466161,0.28790931905324835,46789.998696707
15086,La3Te3.65Sb0.35,600,-7.413703626493825e-05,2.0099620216618432,0.12050001284483874,59636.00159286111
14267,Cu2.1Zn0.9SnSe4,600,0.00010699691662180646,2.069604724254664,0.19500500337488655,53518.45823416814
5987,YbCd1.6Zn0.4Sb2,600,0.00016285414516443994,1.247088021218009,0.8684369130461185,67095.74221503425
9482,(CoGe2)0.15(GeTe)12Sb2Te3,600,0.0002326362733660472,1.4899630697115775,0.9313053212982316,40464.99866135368
15777,Pb0.997TeIn0.003?,600,0.00025284593985205265,1.3642660187101718,0.7458938776485586,26994.41741020958