sampleid,composition,Temperature,Seebeck coefficient,Thermal conductivity,ZT,Electrical conductivity
490,Fe0.98Mn0.02Si2,600,0.00013890217360565735,5.043330773428932,0.027657274043075268,12049.179986085735
10158,MnSi1.729534Ge0.003466,600,0.00017207846766457418,2.079192939157414,0.1994991398681544,23347.022869696488
6339,Yb1Cd2Sb2,600,0.0001942860092120413,1.1570572610304488,0.6155348194846629,32296.69345270043
14462,In0.03Sn0.97Te,600,0.00010785755356409584,2.5691047284539588,0.3974220850925543,132317.71160866934
1912,Al5.7Re4.7Si4.3,600,3.1979574615119064e-06,12.009984604798849,0.00027310843300900066,534540.9062607139
13522,Nd0.99Sr0.01OZnSb,600,0.00018529884097272372,0.9810449152129728,0.11105637728412353,5009.7261781884745
17287,Zn4Sb3,600,0.0001755103408757577,1.186895753011051,0.55666090973969,35148.557804488264
15895,Ga12Sb2Te7.5Se7.5,600,0.00016668698847823572,1.3881758927257262,0.6928861382424181,58728.424204006384
6345,Mg3Bi1.7Sb0.3,600,9.483489751327829e-05,1.9404209692437364,0.18410837279582867,60207.00724910919
6338,Yb0.8Ca0.2Cd2Sb2,600,0.00021204271917797242,1.0617384685842792,0.5930828885395407,23439.427899007333
17288,Zn4Sb3,600,0.0001819822161283482,1.1547117995621057,0.5627786677466293,29324.50750306788
10098,Mn0.65r0.2Ru0.15Si1.74,600,0.0001604026994686587,2.4599047327349717,0.25243644827248285,40224.97223542568
17047,Pb18Ag1Sb1Te20,600,-0.0003540189225071156,0.4095427442273716,0.5729896565303396,2875.918264963739
14461,In0.015Sn0.985Te,600,0.00012678608795206974,2.8736848153269703,0.418106756062406,114348.23758081812
6016,Eu11Cd6Sb12,600,0.0001446970163009038,0.6443314951645187,0.19230540346825992,9803.37081909164
10131,MnSi1.73,600,0.000176702548990111,2.380959618925087,0.18389537983513984,23371.466756660553
11955,NbCoSn,600,-0.00015892874601049564,8.767067391942573,0.08756689972984101,56417.112666247376
15897,AgPb18SbTe19Se,600,-0.00024296356670006522,0.9197891271556848,0.6198207054864111,17343.529509176242
6341,Yb13CaMnSb11,600,0.00011296726978316452,0.8527381344258925,0.2967908657938008,30599.474332809325
12736,Pb(1-x)Sb(x)Se at nominal compositions. here x is 0.01,600,-0.00011303687802401648,2.547913345386529,0.44917153523602815,143864.53402176636
15898,AgPb18SbTe18Se2,600,-0.0002249722933901835,1.0438270159713263,0.6783808842883671,27827.701267859244
10129,MnAl0.0027Si1.7973,600,0.00021021460905882257,2.5722416241099264,0.3471889202507533,33682.21003225843
12737,Pb(1-x)Sb(x)Se at nominal compositions. here x is 0.0125,600,-0.00010770898415344123,2.8152017440807784,0.4105568365402984,160166.19593153335
6340,Yb14MnSb11,600,9.760381589532891e-05,1.0206575185165692,0.21483149152945966,32125.727775422587
1915,Al5.2Re4.7Si4.8,600,0.00013540509869427444,8.264709316996928,0.12123024022713973,91078.79215859504
1913,Al5.5Re4.7Si4.5,600,5.559247402743263e-05,11.14934978640374,0.061775609657830424,371435.4295337861
9488,(GeTe)17Sb2Te3,600,0.0002214340505176607,1.4742138992282368,1.324344080136834,64236.680555455234
10155,MnSi1.73Cr0.02,600,0.00018644051812679845,2.365953387554488,0.217514274645384,24675.28030123293
14963,Cu0.11TiSe2,600,-8.37072497373409e-05,1.7761050267845309,0.14292785183361462,68021.73247431677
10982,ZrCoSn0.15Sb0.85,600,0.0001816601633401012,7.1156609359207454,0.23885043605865294,76363.9497871247
6015,BaGa1.9Zn0.1Sb2,600,0.00021913653267862374,1.0006068796296468,0.4113074808148607,13877.093315386841
15900,AgPb18SbTe16Se4,600,-0.000232127089052678,0.8857945218052551,0.7218032622290141,22085.911028693856
5923,Yb0.2Co4Sb12,600,-0.0002192296112644159,2.5346389150640403,0.41450699334947655,33773.924594209515
1914,Al5.4Re4.7Si4.6,600,6.177784965659134e-05,11.149521777282374,0.07292683058050108,355080.44400619343
6343,Mg3BiSb,600,0.00018706981526005531,0.8202371904169826,0.2902452977371624,9844.620911937065
10159,MnSl1.719136Ge0.013864,600,0.00017080450231965108,2.019911229522584,0.2322695359994963,26802.46002919269
17049,PbTe-Ag2Te (10 mol.%) ,600,-0.0001626931940500795,0.1864260651523373,0.18112266558610515,2126.1280291138305
5985,Yb14MnSb11,600,0.00010053836460256229,0.8466199421012117,0.2639836855635291,31887.57449534603
15933, SiC,600,0.00011551567888408081,2.469806092195208,0.16685766374158575,50688.841323652414
16402,NaCoO2,600,0.00011935547700681367,4.684523341059685,0.07320384784901504,42048.521877721534
14960,Cu0.04TiSe2,600,-6.103725238797718e-05,2.3127679514116397,0.03994474348430424,46120.56793071882
15948,Cu0.88Ag0.1InTe2,600,0.00025972886563918813,1.4194944129621783,0.4070828988727109,13089.364904162629
9487,(CoGe2)0.2(GeTe)17Sb2Te3,600,0.00022863704017778594,1.4673990551248637,1.4270572418431848,63460.315989717696
15934,Ni0.05Mo3Sb5.4Te1.6,600,0.00011504325046445437,4.05475596582673,0.2715301520212859,128904.57961183653
17060,(GeTe)90(AgSb6Te2)10,600,0.00014554783232986746,2.257168177119452,0.8004190073300071,134243.14004035323
15949,Cu0.75Ag0.2InTe2,600,0.0002838438800294506,0.9726380003773524,0.4504002115551665,8204.215228400872
9606,Mg2Si0.6Sn0.4,600,-0.00016461684994395118,2.92145027409565,0.6741219761600058,109962.666162856
9459,PbBi2S4,600,-0.0002553938830172791,0.5590670342982467,0.2683738798756938,4035.8283477154414
15951,Cu0.68Ag0.3InTe2,600,0.00029951681949309534,0.8667063723397539,0.4268727015979433,6209.538868934487
9450,Pb3Bi2S6,600,-0.00013344458478872122,0.7328859396387379,0.16208883397926266,11444.43074666494
10527,Ni0.91Li0.09O,600,6.152370447131046e-05,2.6010558161467343,0.017279971416034694,17513.853340513
6350,CaMnZnP2,600,0.0002266629680197424,1.6286074645700583,0.0009791953753205422,51.7336811039682
17058,(GeTe)90(Ag0.7Sb1.3Te2.3)10,600,0.00018482001818831217,1.7459831974418625,1.0479067968886182,84199.51925779734
15950,Cu0.55Ag0.4InTe2,600,0.00034354137916001404,0.7438491750356893,0.337197974462834,3001.9024046998998
16511,Zn3.675In0.125Sb3,600,0.00019707203503973689,0.7453249490935989,0.9196153188020428,29201.103987316656
13523,Nd0.98Sr0.02OZnSb,600,0.00018369153512762043,1.1021924672587229,0.11467350879950065,5915.105583336545
15932,Ni0.05Mo3Sb5.4Te1.6/0.020Sic,600,0.0001128044362381981,2.4870183391800023,0.19633758433710435,59805.43972037898
14465,La2.2Ca0.8Te4,600,-0.00013575398653981692,1.088343997334998,0.25893022099462953,25485.46101539104
17059,(GeTe)90(Ag0.8Sb1.2Te2.2)10,600,0.00017506244866942737,1.8180331921748396,1.0338138499163927,97584.10719351436
12416,NbCoSn0.9Sb0.1,600,-0.00011763735323125081,5.856788704314114,0.1985101308438167,135610.90588821462
14958,Cu0.005TiSe2,600,7.073202802261255e-05,2.574173991417737,0.0286388075552934,26383.107792556537
16401,NaCo0.9Ni0.1O2,600,0.00013749157305015993,1.9493582766616762,0.09841449915150782,16327.588378789054
10110,MnAl0.0063Ge0.045Si1.7487,600,0.00017934168556068276,2.5128970631069305,0.30952873133112263,40305.278061174686
16510,Zn3.725In0.075Sb3,600,0.00020695118648808385,0.6224074318663635,1.1217965122286733,24880.749384391274
10100,MnAl0.0063Ge0.018Si1.7757,600,0.00019724513247957887,2.650185724724477,0.3334753446193767,37859.61563710978
15937,Al2O3,600,0.00010768168061543234,3.667310172571573,0.2313849442591388,112980.52593636482
387,Pb0.98Na0.005Te0.88S0.12,600,0.00032398264369230134,0.9454260966571236,0.7928912755763637,11902.727334036026
14464,La2.5Ca0.5Te4,600,-0.00014559949192408518,1.0438550166079201,0.31805317615292433,20985.733858726107
15944,BaCu5.9SeTe6,600,0.00022112197158144628,0.4536024964810472,0.7464136676344867,12268.530207906673
15935, Ni0.05Mo3Sb5.4Te1.6/0.0100Al2O3,600,0.00010481493630361109,3.703119194539872,0.2340149447981651,115823.96449114048
16509,"Zn3.75In0.05Sb3,",600,0.00021427520805343002,0.6182961967956244,1.0759907658599273,22996.36627408745
15936,Al2O3,600,0.00010759295202265693,3.654740410323498,0.24942123550751436,117393.51509741654
6351,CaMnZn0.8Cu0.2P2,600,7.553504542838574e-05,1.9717136051317503,0.0018435017947139056,1061.7912889692038
489,Fe0.98Mn0.02Si2,600,0.00025591750192177415,7.379434155840793,0.042938039115829565,8063.322743743952
6012,BaGa2Sb2,600,0.00026325509461758075,0.9970076499026406,0.0823899658478787,1854.0051185790849
17054,Ag0.6Pb22.5SbTe20,600,-0.00023673883009475528,0.8638954941112065,1.0500007406128953,26389.912198157857
6013,BaGa1.975Zn0.025Sb2,600,0.00020387905709023777,0.9673459919226991,0.4302021436383636,15604.849516734688
16507,Zn4Sb3,600,0.0001812845001393284,0.7699838340839475,0.4125531663689036,15561.706540287805
12740,Pb(1-x)Sb(x)Se at nominal compositions. here x is 0.02,600,-0.00010168196914747538,2.649666475027209,0.4086515440084301,163273.61919658913
488,Fe0.98Mn0.02Si2,600,0.0002648403017583572,6.489186483930961,0.05076144942451913,7827.17187977828
10525,Ni0.97Li0.03O,600,0.00012776789773390196,3.7870911586453366,0.004837214765490651,1698.5618535734266
10261,Hf0.6Zr0.4NiSn0.98Sb0.02,600,-0.00014655650600518716,4.2693248784398765,0.5552511699356145,184489.86496808808
13524,Nd0.97Sr0.03OZnSb,600,0.00015744298088175694,1.4864634952781108,0.10453254945672086,9642.93494454492
10099,MnSi1.81,600,0.0002326569179264152,2.6397982226673142,0.2623123269648188,21320.93473080571
12739,Pb(1-x)Sb(x)Se at nominal compositions. here x is 0.0175,600,-0.00010208089285942963,2.6747991201867243,0.3972123217053321,172162.02300907328
6346,Mg3Bi2,600,5.9432601326031764e-05,4.102018757482953,0.07880410323320075,163008.48395910027
1904,CrSi2,600,0.00012873011790132927,7.7844108496233835,0.12110267837480805,94813.00541732818
14607,Cu2.2Zn0.8SnSe3.8Te0.2,600,0.0001581120577924751,0.8991607067010235,0.3558485429337032,17774.813256245903
16403,FeSb2Te,600,0.00021534962953717888,2.2475895783278146,0.19004648400351667,15967.646763181667
17053,Ag0.4Pb22.5SbTe20,600,-0.000239619963279943,0.8029930845637407,1.0980250632801376,24589.744859232218
6014,BaGa1.95Zn0.05Sb2,600,0.0002200015318268392,1.026346297508015,0.4269721571058237,14737.601376645433
17055,Ag0.8Pb22.5SbTe20,600,-0.00023514678858043531,1.1387763569569929,0.777192989295895,26712.028990433475
15931,Ni0.05Mo3Sb5.4Te1.6/0.020SiC,600,0.00011224246994606389,3.5705465713292623,0.232602358914316,96853.34491255232
12417,Nb0.99Ti0.01CoSn,600,-0.00014887295413701016,5.176316872594075,0.06383445545273579,23562.907832168887
16508,Zn3.725In0.025Sb3,600,0.00018705538514607849,0.7007231401655876,0.7026173003471894,22687.534712842775
10526,Ni0.94Li0.06O,600,0.00012159350087405877,2.833255086788379,0.027870283681086842,8190.404056542997
15930,Ni0.05Mo3Sb5.4Te1.6,600,0.0001117628242449774,4.4109938174967125,0.1899810914352132,98663.22083749766
303,Pb0.98Na0.015Te0.88S0.12,600,0.0002464016249657692,1.2911395111825383,0.9291524480862804,32932.277134261676
10904,(Sr0.9La0.1)2ErRuO6,600,-0.00016354831173527525,0.8098213293086121,0.0001020967183624646,5.151783609349713
14961,Cu0.06TiSe2,600,-7.272549035747913e-05,2.000992655481733,0.08166832665160853,56647.83508641448
14466,La1.9Ca1.1Te4,600,-0.00010416281055575408,1.1054568280821728,0.3174327833906809,44253.657154426975
10981,ZrCoSn0.1b0.9,600,0.0002190994548094532,7.298933859255296,0.2353946246900377,54116.31675234804
166,Pb1Se0.88S0.12Bi0.003,600,-0.00014314027148471442,1.7416379448883632,0.3609280793343279,51133.276827352696
10157,MnSi1.65,600,0.00019131934460931655,3.2465925743012436,0.23076393451276075,34113.533539187105
4515,Co0.9Ni0.1Sb3,600,-0.00014239292043091362,4.184294899152366,0.21904822039122407,68524.45768205353
16445,(Zn0.985Cd0.015)4Sb3,600,0.0001845010837713482,0.6258165238820614,1.0188784732105494,31341.322742584198
17057,(GeTe)90(Ag0.6Sb1.4Te1.8)10,600,0.0001802933368885909,1.8209902109284128,0.9804213772922342,88250.38313894856
6337,Yb0.6Ca0.4Cd2Sb2,600,0.00023491849471735248,0.8950714480618576,0.8016694242050199,21910.816031674083
508,Fe0.95co0.05Si2-10wt%Er2O3,600,-0.0002247516465891811,3.016615286560933,0.2420899232275576,24095.704329264518
4711,Ca0.18Co3.97Ni0.03Sb12.40,600,-0.0001854374086468121,4.321473029710007,0.6125779428930653,134059.22708908175
507,Fe0.95Co0.05Si2-1wt%Er2O3,600,-0.00019981035832419022,2.2035951778293192,0.3499609715875645,32193.20234265674
12858,Yb14Mn0.9Zn0.1Sb11,600,6.171582207662962e-05,1.0139490618388245,0.130653588364676,54198.10248224002
14936,(GeTe)1x(AgSbTe2)x,600,0.00016289326367870314,1.6628174268264102,0.8129993503343759,84913.60241898478
506,Fe0.95Co0.05Si2-10wt%SmO2,600,-0.0002026581078480029,3.9467323805312535,0.18649527084159448,29869.385287699668
10094,MnSi1.75,600,0.0001830877147799048,2.4477573501222043,0.325460101946785,39609.235580080465
4475,Cey(Fe3.925Ru0.075)4Sb12,600,0.00012901768154523007,2.7874085114346,0.6080106781754786,167827.87245222984
16056,Ag0.7Pb18Sb0.8Te20,600,-0.00027246421932247537,0.7222715727224835,0.8211245075765101,12602.862413367466
12857,Yb14Mn0.7Zn0.3Sb11,600,9.097127850657278e-05,0.8793489333133121,0.2690472950037593,45301.17378010026
505,Fe0.95Co0.05Si2-1wt%SmO2,600,-0.00021293032701620175,2.8419871343067022,0.3548336326420895,37069.8298294603
16442, (Zn0.99Cd0.01)4Sb3 ,600,0.00018856433183433064,0.6625142249546386,1.0352683742838038,32164.568765545864
1839,MnGe0.035Si1.715,600,0.00017104029268328423,2.129712803864708,0.43126928791157343,52326.472821467956
10235,Fe0.90Cr0.10Si2,600,0.00027124782389468274,12.085367032132849,0.020978875662601298,5743.25735782253
5031,In0.25Co3.95Ni0.05Sb12,600,-0.000216219942259188,3.025174689554597,0.7032344072196015,76361.23736680008
13612,Ca5Al1.8Zn0.2Sb6,600,0.00013676881303885703,1.1331400114802317,0.23638544314465199,21451.90843495502
381,Pb0.98Ba0.01Na0.01Se1,600,0.00011011327783902285,1.7537883156274632,0.4051394315900285,78762.69251739501
16531,Zn4(Sb0.995Te0.005)3,600,0.00017963588665408764,0.7533243558692914,0.9845837883329988,36841.678878651735
10093,MnSi1.73,600,0.00019930255737728132,2.675591115136337,0.32288351307064256,34293.4964199922
16991,Zn4Sb3,600,0.00018188832891899144,0.7256366331237943,0.9128558473190054,31328.773210254458
16532,Zn4(Sb0.98Te0.02)3,600,0.00016667261840029704,0.7581621654676188,0.8886614509751729,39815.25063051633
11093,CaCd2Sb2,600,0.00020961452926992688,0.6652963925017424,0.029477335866486543,872.8123257717343
14105,Tl9LaTe6,600,0.00022644118122124043,0.3242488678237368,0.5679850638210879,4828.610638798371
17004,Zn4Sb3,600,0.0001829387498878008,0.7941448167255225,0.6439849610193931,25967.923312992447
14106,Tl8.95La1.05Te6,600,0.0002820386489476556,0.26918344029955665,0.4992230842962739,2502.9616710129903
11092,EuCd2Sb2,600,0.0003053065388724369,0.7392395608538416,0.5563578464635853,7694.34241358018
17005,(Zn0.999Gd0.001)4Sb3,600,0.00018263444981855527,0.7616738935027331,0.7429929965239387,28965.287293235488
10127,Mn0.97Cr0.03Si1.74,600,0.00016750824313452843,2.5927843405565483,0.3536527561005811,54465.29049579988
11091,PbTe 4GPa,600,-0.00025868478086917376,1.5983682282735638,0.4632169759570143,18440.313383544188
17006,(Zn0.998Gd0.002)4Sb3,600,0.00018348380700712374,0.6348038677050041,1.1240297492519682,36449.40781086528
17007,(Zn0.997Gd0.003)4Sb3,600,0.0001809994499425417,0.7262081572611976,0.8228553560150788,31879.128225110162
12851,Re3Ge0.6As6.4,600,-0.00011402957117606336,4.398692671790342,0.18845037533890213,98654.76592412496
12853,Yb14MnSb11,600,0.0001035474965269981,0.8484726614688679,0.2450623246889225,31873.738549753183
14104,Tl9.0.5La0.95Te6,600,0.0001730420590165217,0.4602658650964785,0.4561993079526809,10625.45632716961
10096,MnSi1.8,600,0.00020401107981797063,2.6731303558762654,0.28440281107087184,30443.547837859904
12856,Yb14Mn0.6Zn0.4Sb11,600,9.861527781619792e-05,0.8039938860411445,0.2715033969404832,44293.373737380985
16060,Ag1.1Pb16Sb0.8Te23,600,0.00031433737948770226,0.9428151858721924,0.24576065893904264,3465.3322681221143
16530,Zn4Sb3,600,0.00017901239036367898,1.0182905948866958,0.5541222171884199,26645.333143583488
16992,(Zn0.9975Ge0.0025)4Sb3,600,0.00020085444003787648,0.7132817092726835,1.1879647016691903,34363.523216717265
10095,MnSi1.733,600,0.00018546434528605158,2.2871676702052066,0.3212063816013437,35596.72608434767
6019,Eu11Cd1.6Zn4.4Sb12,600,0.00011505326849215879,0.7810263918611067,0.2332264230712993,19487.59071302201
12855,Yb14Mn0.7Zn0.3Sb11,600,9.398357982442519e-05,0.8725874293395828,0.2569059220763911,39245.578026620984
16388,Ca2.8Yb0.2Co4O9,600,0.00015043431062036273,1.0761310000134745,0.09814126623000488,7473.365566460886
16993,(Zn0.995Ge0.005)4Sb3,600,0.00018754944839350192,0.7298642649494105,1.0196317906300802,32933.25634743551
13609,Ca5Al1.98Zn0.02Sb6 ,600,0.00022753456520852543,0.8406706022133191,0.1166461862827888,3446.420857933827
14296,Cu2-xSe,600,0.00012640676849481466,0.5337873842045617,0.6777219588613784,30965.031984542813
16995,(Zn0.985Ge0.015)4Sb3,600,0.0001904766363308244,0.7582975143920535,0.9704461591380034,28933.629500786534
14103,Tl9.1La0.9Te6 ,600,0.0001536218422655271,0.5707430835275353,0.4044726433769026,14296.279149288881
10262,Hf0.5Zr0.5NiSn0.98Sb0.02,600,-0.0001356825610443441,4.051780884958297,0.4708665067174404,166414.82226787
504,Fe0.95Co0.05Si2,600,-0.0002203811213834224,5.286616070168492,0.10390555682901853,18850.22412782567
499,Fe0.98Co0.02Si2-SiC-2mass%Cu-3mass%Si,600,-0.00029236017613365776,4.5604978155879285,0.09008868295581053,8011.149009076686
16994,(Zn0.99Ge0.01)4Sb3,600,0.00018854456241704167,0.7436365193197969,1.0267716534260116,33593.884177379296
9604,Mg2Si0.6Sn0.4,600,-0.0001712391023616847,3.5062790005281963,0.5787976404289258,107335.98020111004
286,Pb0.98Sr0.01Na0.01Se1,600,0.00010540220210015552,1.8856633281298103,0.4042248063875855,93524.33992033672
12891,Ca5In0.98Zn0.02Sb6,600,0.00026533084509855937,0.8174374076799642,0.2937685277939687,5214.125191680128
16535,Zn3.96Cd0.04Sb3,600,0.00018247155526220432,0.6939501891508253,1.0587552522692354,36324.67400247196
1837,MnGe0.0175Si1.7325,600,0.00018347706565891486,2.2082447533146348,0.4122816054696568,45074.02525647661
4712,Ca0.18Co3.94Ni0.06Sb12.40,600,-0.00017937687089989205,4.735760903659015,0.4409188351771737,121128.96842702795
12890,Ca5In2Sb6,600,0.00039051611506969714,0.7820074994668628,0.13004442455869902,1313.3756208942978
14482,Cu1.98Se,600,0.00014977769770727441,0.7518617271886716,0.7545741435953013,43430.80008586825
12292,Zr0.5Ti0.5NiSn,600,-0.0001759365931071267,5.677452552064979,0.2252328014898562,73693.76088484772
12892,Ca5In0.95Zn0.05Sb6,600,0.00019385766553652945,0.9850308819559436,0.3791195997484441,13965.57854120294
12289,Zr0.7Ti0.3NiSn,600,-0.0002319979369177707,6.664020243948079,0.31233849907844835,62904.02964368359
14924,Pb0.72Mn0.03Sn0.25Te1.00,600,0.00010832022244228804,1.3646814635533753,0.034164300904726774,5760.229409966369
10168,Fe0.95Co0.05Si2,600,-0.00022927714076015595,7.155155150959081,0.05636726795711,12787.13576864854
16079,Ag9TlTe5,600,0.00029362490790621135,0.24442050589277234,0.7071476232708178,3134.0579122959043
14483,Cu1.95Se,600,0.00011755477453803997,0.9798138542534344,0.5255235385686956,61060.21726705051
12290,Zr0.5Ti0.5NiSn,600,-0.00018330488497253183,5.903230290908843,0.19145870384883412,58091.125331158924
12893,Ca5In0.9Zn0.1Sb6,600,0.00016036291707549182,0.9733751339123378,0.3606407940248475,19427.691008477243
14933,TlSbTe2,600,0.00019874226892856517,0.836729218485913,0.6049377867473735,19378.26291891357
6322,Ca16Bi11,600,1.4255824653085962e-05,1.3314115928083474,0.0017513349823536151,19122.541696982746
10126,MnSi1.733,600,0.00018397666854607996,2.2750579516955227,0.3235501353559625,36245.767344422435
8382,Mg2Si,600,-0.0004380595632437736,5.687760449162691,0.03498407990554664,1466.2553704115217
12887,EuCd2Sb2,600,0.0002987996162415428,0.7441865939882704,0.5652544188518275,8052.669683318357
12886,EuZn1.4Cd0.6Sb2,600,0.00021260458083492088,1.147080670149973,0.7898578003905612,33573.599517599934
16534,Zn3.91Cd0.04Sb3,600,0.00019001861136080277,0.6843267923937989,1.1115386365720663,34738.390457277026
12885,EuZn1.8Cd0.2Sb2,600,0.0001881412240393271,1.4266233388631786,0.9357516323594406,63342.03930417939
14931,Tl9BiTe6,600,0.00022489044313310318,0.493293854038414,0.7475794611343713,11866.05522122917
1838,MnGe0.02625Si1.72375,600,0.00017647923084812596,2.1856068828787425,0.4315617115647573,50475.02021025584