sampleid,composition,Temperature,Seebeck coefficient,Thermal conductivity,ZT,Electrical conductivity
13151,Cu2.147Cd0.900Ge0.903Se4.050,600,0.00020068273827130825,0.8213341550590134,0.2642698281819801,7427.942660508797
13816,CuInSe2,600,0.00018244714488572318,0.7331577287242201,0.4518214049763666,16271.255943183103
10206,Fe0.95Cr0.05Si1.958Ge0.042,600,0.00020436392370901652,7.675759748666629,0.03061114833229593,9376.51126103663
13815,CuCr0.25In0.75Se2,600,0.00015716966871964682,0.8855629034537942,0.3483143107331164,18474.649958844042
16751,AgSn15Pb3SbTe20,600,0.00017037114580589942,1.99131678987036,0.3351694007250983,37433.20318940911
7908,La2Ca0.2S3,600,-4.346586443809781e-05,1.6815287402522316,0.04808902519877073,71334.95235159049
16248,FeGa3,600,-0.0002186715145834621,2.82004489782488,0.0151123296036813,1485.4285384573325
2386,Ba8Cu4.5Si6Ge35.5,600,-8.099512645755754e-05,1.8413965282041824,0.18980045631178968,89518.23842228594
13819,Cu2ZnGeSe4,600,0.00017023952729675512,0.8695149900898509,0.049359607804895685,2099.1966187227426
13148,Cu2.123Cd0.935Ge0.901Se4.041,600,0.00034232440311073893,0.7533034760674961,0.14580325651729845,1454.8936383920084
16753,Ag0.8Pb22.5SbTe20,600,-0.0002670281733315469,1.1561488809875369,0.48257729980134495,13065.776850462687
13149,Cu2.105Cd0.892Ge0.909Se4.094,600,0.0002935060189787383,0.7218542167171682,0.18258291280928934,2257.590194200029
5140,Sr0.19Co3.98Ni0.02Sb12,600,-0.00017592682611873497,3.7161927963615553,0.5653253780115028,115716.47661439695
13818,Cu2.1Cd0.8SnSe3.4,600,0.00014917642121738058,0.9339753792735666,0.4030610861384616,24045.545785778846
13150,Cu2.103Cd0.915Ge0.911Se4.071,600,0.00022112180690452026,0.8373961894262145,0.2615514672575824,6485.0597908677455
5866,Yb14MnSb11,600,9.923497208700088e-05,0.8578980073696076,0.2715378741693562,32999.445464553726
5862,Ca0.75Yb0.25Zn2Sb2,600,0.00015529759793367424,1.3313775860628474,0.3365350250652772,28947.178986725216
6235,Yb14MnSb11,600,0.00010036592216833493,0.79271258978065,0.2776889909442537,32034.929714900656
4347,Yb0.05Co4Sb12,600,-0.0001855218572716368,4.565929217265612,0.07151132887033054,17282.604710834603
7909,La2.90S4,600,-4.362795372569784e-05,2.0545503148037456,0.061896239941088976,111352.5355879868
16629,Zn4Sb3,600,0.000176958723050827,2.084711752592153,0.2250405671591697,26607.786242231006
16744,(GeTe)80(Ag0.6Sb1.4Te2.4)20,600,0.0002177834796877896,1.543941344280103,1.0742393062233468,58609.97138125635
16250,OsGa3,600,-0.00037558789921120764,2.178049577904352,0.026545090421165027,683.0893850264147
10207,Fe0.98Co0.02Si2,600,-0.00019734933344584384,4.130988355264623,0.033902708946085464,5993.296917140653
13814,CuCr0.5In0.5Se2,600,0.00014731031548970532,0.9440023652667,0.2989779152009526,22228.04402660865
14339,Yb0.40Co4Sb12,600,-0.00014137028194005882,3.552559655636957,0.8004563413944374,229824.53952243197
16750,AgSn9Pb9SbTe20,600,0.0001996881493060515,1.1356110608535743,0.6260324910490315,30585.9966793286
13813,CuCr0.75In0.25Se2,600,0.00014716033625920984,0.8552570166730616,0.3361407302555397,23352.964732360077
16749,AgSn3Pb15SbTe20,600,0.00022394811643803312,1.075039667605617,0.5004273384590596,18587.91780281052
16249,RuGa3,600,0.00010058312139977573,2.424504200000164,0.0010380798820096182,414.62190907246725
13812,CuCrSe2,600,0.00016049591192925187,0.7913143862655312,0.33955625251703514,17132.57030498078
12426,TiCoSn0.05Sb0.95,600,0.00020530584491977794,7.8402268847839025,0.13337386928668016,38594.93764156842
13187,Eu5In1.95Zn0.05Sb6,600,0.00018818260722522164,0.8970852655931031,0.2458365883660393,9614.632554048992
16712,Ag(Sb0.95Bi0.05)Te2,600,0.00029163726448616547,0.4865734722620612,1.1039329722160358,10061.123247836691
16266,Ir3Ru30.4xGa66.6,600,-0.00012959542641025404,4.2220326915911714,0.21393124326278684,82538.10880132965
16265,Ir2Ru31.4xGa66.6,600,-0.00012536712002484264,4.1547905717899205,0.15954814928962874,62860.865687721765
13796,Yb0.086La0.34Te0.574,600,-0.0002423737544980969,0.5558735017485459,0.26143681618686165,3948.445480241545
13188,Eu5In1.9Zn0.1Sb6,600,0.00018508280624418032,0.8964974285814433,0.26951640187646403,12865.792704646079
16710,AgSbTe2,600,0.0002645395461347792,0.7250449364362942,1.0032475673291477,17016.96879361893
16642,Zn4Sb2.98Te0.02,600,0.00016865074576805257,0.6906276505550746,0.7263849581830897,28389.167452860376
16711,Ag(Sb0.97Bi0.03)Te2,600,0.0003049137175688063,0.5487006566720245,0.6340144817397556,6155.673602739997
13189,Eu5In1.8Zn0.2Sb6,600,0.00016883782667680874,1.0002483511704536,0.2654612741643264,14065.954679566656
16714,Ag(Sb0.9Bi0.1)Te2,600,0.0002292528743983,0.8421175873704214,0.23317494873630745,7046.824337562025
13185,Eu5In2Sb6,600,0.0001400242362561044,0.9228576443386372,0.034488064459684685,2947.899139023075
16640,Zn4.08Sb3,600,0.00016706056531835107,0.6847722729012595,0.7200823608299555,29037.894645155844
16713,Ag(Sb0.93Bi0.07)Te2,600,0.00032020626789688536,0.636868478311602,0.5848281153022604,6406.491139070409
13792,Yb0.02La0.399Te0.584,600,-0.00012014724961715225,1.3036870536432277,0.28427133490044065,44101.439847372785
12047,Zr0.98La0.02NiSn0.98Bi0.02,600,-0.00020767685084986014,5.1705807803013215,0.27802310349795384,55551.115565150205
13186,Eu5In1.975Zn0.025Sb6,600,0.00019635146851658397,0.928062402802036,0.1488267863615226,6472.42102197055
16264,IrRu33.4xGa66.6,600,-0.00012625042799943232,4.9380262025144255,0.10042318314193384,42779.84610474709
10118,Mn0.85Cr0.1Ru0.05Si1.74,600,0.00016522497130937449,2.5190400069554038,0.24290468726724546,37356.68580009695
13793,Yb0.029La0.392Te0.578,600,-0.00012592546317103723,1.2659090252318197,0.3161533299501291,37432.35187977206
14783,Mo2.6Fe0.4Sb6Te ,600,8.186196130831715e-05,5.024205335287749,0.1566248640220134,194187.60451054788
8184,FeSi1.9,600,0.00018856366401453058,5.504849592947007,0.02534423044696154,6539.6920618057275
12045,Zr0.98Ce0.02NiSn0.98Bi0.02,600,-0.00020539627778269493,5.2446706825252924,0.24719315993812374,51217.48920088373
16274,Ge3MnSb2Te7,600,0.0001258924252609316,1.5150670293137944,0.2259014342002145,32023.873364712374
16273,Ge3MnSb2Te7,600,0.0001323163784440307,1.3812856600544487,0.2557597711899287,27871.44987676547
16272,Ge3MnSb2Te7,600,0.0001279773793832014,1.4220938379621155,0.2284829420033952,28415.56575857707
12046,Zr0.98Ce0.02NiSn,600,-0.00015242175674134843,5.699213884325082,0.1235614039750191,50518.75209979371
13794,Yb0.044La0.377Te0.579,600,-0.0001702995282308286,0.8592363941645557,0.3967911116296693,16486.621312161187
10969,NbCoSn0.94Sb0.06,600,-0.00012501234375052875,6.271786498351582,0.17880112511559376,116255.35029663212
16271,Ge3MnSb2Te7,600,0.00017393482244328003,0.9656669605026688,0.4033690318167609,19242.83371643309
15210,(Ag0.02PbTe)0.945(Ag2Te)0.055,600,-0.0002600420618453774,0.8842668046583413,0.8951474921137932,19952.862848339755
6236,Yb14MnSb11,600,0.00011390644341760762,0.8892825750393665,0.33742253660430643,32101.017217374385
5867,Yb14Mn0.8Al0.2Sb11,600,0.0001077437872450298,0.9149919964965408,0.2926700502066077,34467.728721307685
13506,K2Bi8Se7S6,600,-0.00018135419705586666,0.5066364159912693,0.41451693654875627,11193.899320453427
16637,"HMS(Mn4Si7, Mn11Si19, Mn15Si26, and Mn27Si47)",600,0.00017538815887916152,2.6659657967769093,0.2639651903490637,37432.55636271127
10686,In4Se2.95,600,-0.0004002255200987245,0.5843316786010004,0.3824110717243103,2254.089887503173
6229,Yb14MnSb11,600,0.00011522828415284573,0.8129830160318329,0.3220104555636396,28040.992931985988
12434,Zr0.98Nb0.02NiSn,600,-0.00017517923463147652,7.478246395680999,0.3514357609296894,126478.82420159428
14538,Cu0.2Ag2.8SbSeTe2,600,0.00027291543184370347,0.5167457481590924,0.3698930559157291,4277.063057738787
1340,Si80Ge18Sb2,600,-0.00038007441289790586,2.633291121533123,0.2409203374109784,7625.135984492307
14539,Cu0.2Ag2.8SbSeTe2,600,0.00023576046249175987,0.5541109939933313,0.37535045321119415,6236.494039272107
1341,Si80Ge18Sb2,600,-0.00037400596323426514,1.5052101855854998,0.2917818382345554,4522.971351552338
10966,NbCoSn,600,-0.00011516463290596975,6.215775330046215,0.0539008798834738,36480.142685767496
12433,Zr0.99Nb0.01NiSn,600,-0.00021100036704290131,7.112902216164743,0.3394182028927991,78518.92447120359
12042,ZrNiSn,600,-0.0001910186627481173,7.8389511648979555,0.09149501676028814,36164.7176600432
13496,K2Bi8Se7S6,600,-0.00018052886766307884,0.5068504687916249,0.4152005160698434,11204.591732367757
13795,Yb0.079La0.348Te0.574,600,-0.00019024331786266318,0.7183019592154657,0.3729124245739522,10510.857386603842
10223,Fe0.9Fe0.95Co0.05Si1.958Ge0.0425Cr0.05Si1.946Ge0.054,600,-0.00015789276810127667,4.829112565383985,0.05996547946864857,19359.44539892358
16639,"HMS(Mn4Si7, Mn11Si19, Mn15Si26, and Mn27Si47)",600,0.00018262440141605436,2.287440658103605,0.29079521436271144,33660.53482777897
5139,Sr0.22Co4Sb12,600,-0.0001616314894009567,3.8965452809127368,0.4987184175880213,118190.91890448835
10392,NaxCoO2,600,0.0001038710718319447,1.916375633305125,3.954525331452932e-08,0.011706700980410687
16638,"HMS(Mn4Si7, Mn11Si19, Mn15Si26, and Mn27Si47)",600,0.00016763540699538853,2.540289022666674,0.26366776942185005,39197.543157049666
15211,(Ag0.03PbTe)0.945(Ag2Te)0.055,600,-0.0002625614119586016,0.9157164216441744,0.8046477248987098,18201.077605104547
16930,Ag6.52Sb6.52Ge36.96Te49.00Ce1.00,600,0.00017551403153284666,1.6560515223361734,1.1234481144037929,98212.35232858683
12974,Ni3GaSb,600,-1.371717137990619e-05,18.063674809116787,0.008190027448290426,1192195.5931976016
10113,MnSi1.75,600,0.00020339402898968768,2.6210931511546343,0.3411591006375991,36025.64520535185
16929,Ag6.52Sb6.52Ge36.96Te49.00Yb1.00,600,0.00017434036037575662,1.6340464313210572,1.1304425624862775,98876.41824315698
14728,Cu1.99Ni0.01Se,600,0.0001416153643411367,0.7977542996651511,0.834032666537226,45823.3661094622
14006,Cu2Se1.01,600,0.00015263018498128176,0.8509244765532185,0.790413792324083,40127.114055014754
8215,Bi2Sr2Co1.7Ox,600,0.0001300382800464894,0.9686296209505464,0.01259492100025774,1056.1938352642321
14008,Cu2Se,600,0.00020498418145681687,0.6530954483633199,0.9111646198267986,20595.928907331097
14007,Cu2Se1.01,600,0.000161021635357859,0.8311149490730464,0.8282104478868576,37963.95265038857
12975,Ni3InSb,600,-1.5171409811067869e-05,16.111929135269982,0.009928955631627628,1062554.783602538
16925,In0.02Zn4Sb3,600,0.00018796144719491692,0.8131996971703801,0.5978573515881442,24283.646025822392
14506,Cu1.8Ag0.2SnSe3,600,0.00036084128109965027,0.6457796984531116,0.3177634639112383,2186.8958025499846
12977,Ni0.15Mo2.85Ni0.15Sb7,600,4.630595111965369e-05,7.091104428332463,0.08917324680453992,458726.97796000453
12978,Ni0.2Mo2.8Ni0.2Sb7,600,4.4908381261350505e-05,7.364069232487923,0.08415636951402349,474501.0009148746
10977,Nb0.99Ti0.01CoSn0.9Sb0.1,600,-0.00012046062159594275,6.063894071219735,0.20388034422529555,153310.26000553244
16926,Pb0.02Zn4Sb3,600,0.00018793730764244366,0.6783815344131264,1.059317186043954,35631.08455641322
14005,Cu2Se1.01,600,0.00015561333920317925,0.941604631235594,0.7287405416471541,39776.768722174005
16928,Ag6.52Sb6.52Ge36.96Te50.00,600,0.00015332812822285642,1.5798396612180758,0.9195897998268244,101114.6907470232
10177,(FeSi2)0.85(TiB2)0.15,600,-0.00012410641149756998,6.387449517946387,0.052038346674451286,35967.585431644744
16927,Ag0.02Zn4Sb3,600,0.00016448451599785163,1.024430272543566,0.5623542231368369,39576.592950271515
14360,(PbTe)0.1(Ag2Te)0.9,600,-0.00017757810456049854,0.4635823018921323,0.7333783480145172,19902.596609053944
12976,Mo3Sb7,600,4.1474413089509806e-05,8.084399890877147,0.06021789482724831,437340.2833209282
13625,Ag0.74Sb1.26Te2.26,600,0.00022619439518244185,0.997232317611014,0.9025268824829906,25087.08878852022
14004,Cu2Se1.01,600,0.00015522008110437554,0.8912032589820538,0.7879426175162023,39694.915318385916
4721,Yb0.3Co4Sb12,600,-0.00017907680786950265,2.952017022821843,0.8801363538432424,135397.5258419136
9274,Sn0.99Na0.01Se,600,0.0003011375155995198,0.9488479065057244,0.7227685357095208,14090.408250253096
13308,CeSe2,600,0.00043880254476616265,0.6428835594616703,0.0041630731135648465,23.16480334889398
16940,AgPb20SbTe20,600,-0.0002721127354859287,1.0022905913844058,0.8524429749183482,17574.00182230056
16941,AgPb20SbTe20+0.1vol.%SiC,600,-0.0002408644251425915,0.7873017836789581,0.922220816395505,20549.306550049183
9275,Sn0.98Na0.02Se,600,0.0002497689865991853,0.9329553969624133,0.8789251204842591,22789.73621973045
16942,AgPb20SbTe20+1vol.%SiC,600,-0.00026399033963655247,0.7098070884066552,1.056635403453629,19113.638341029437
13309,Ce0.9Cu0.1Se2,600,0.00034011481603444626,0.8487862119063291,0.11339421348405256,1438.968557394077
12422,Nb0.99Ti0.01CoSn0.9Sb0.1,600,-0.00011953730257668435,6.0065219501058476,0.2027164435978472,157346.96005802654
14009,Cu2Se1.02,600,0.00012495091950262994,1.4626418085674424,0.5612125141075128,73415.10529078824
9426,(Mg2Si0.9375Sb0.0625)0.4(Mg2Sn)0.6,600,-0.0002483423468948501,2.7592761278102502,0.4584956968159447,38275.709091231634
10090,MnSi1.85,600,0.00023840278723499903,2.9942834755510463,0.20309478773274053,17832.727935088238
8214,Bi1.8Sr2Co2Ox,600,0.00014067764530351152,0.733196389666978,0.016260468648325088,994.3235626351303
5912,Sr0.3Ir4Sb12,600,-0.00031144865752121334,6.300428928035477,0.08509194779438835,9406.764478587744
12990,Cu3SbSe4,600,0.0003193525394052718,1.2628411879728072,0.3653907317682369,7362.087889528963
12991,Cu3SbSe4,600,0.0003289597279024084,1.2760576870423799,0.4371122050400469,8752.634332346446
13632,Cu2.95Sb0.98Sn0.02Se4,600,0.00020167352313186785,1.5339878338585424,0.5131402125763725,32363.36102287248
4725,YbCo4Sb12,600,-9.492452052690984e-05,5.331580655793298,0.30634676674027395,293266.5033809821
14730,Cu1.99Mn0.01Se,600,0.0001227829102982226,0.919796449871392,0.7038675730970116,60984.4320011104
13631,Cu2.95Sb0.99Sn0.01Se4,600,0.0002430665481813896,1.386822053777963,0.4922272635631271,20429.674811032142
2305,Ba8Ga16.4Ge27.9,600,0.00018694977453598038,0.9419689361031524,0.5838246200410868,27153.771093251107
12988,Cu3SbSe4,600,0.00029379796366730914,0.5754414263899941,0.4616633469945511,6135.664429025538
14509,Cu1.85Ag0.15Sn0.95In0.05Se3,600,0.0001759460716269719,0.843331598971055,0.3845368262818971,14711.089477627043
12989,Cu3SbSe4,600,0.00029040870799265753,0.9299147201295276,0.3388836395940851,5332.324890276444
12421,Nb0.99Ti0.01CoSn0.92Sb0.08,600,-0.00012726507752333594,6.017078064205744,0.19432981095134028,116716.0823135692
10976,Nb0.99Ti0.01CoSn0.92Sb0.08,600,-0.00012622146176264555,6.09165738099818,0.1951729885057472,118220.54136892625
12997,Mo2.5Ru0.5Sb7,600,5.9550580180271634e-05,5.185531279169402,0.14606629956793254,325059.7663165288
16564,Mn36.4Si63.6,600,0.00018467451361788768,2.808168494165483,0.2826240236430591,34746.647023715755
14731,Cu1.99In0.01Se,600,0.00019508721555247519,1.097118232246528,0.4055474115537915,17727.305634811182
13633,Cu2.95Sb0.97Sn0.03Se4,600,0.0001815385353742919,1.6335316313575872,0.4846218080053349,40433.70727005019
15046,(Cu2Se)0.985(CuGaSe2)0.015,600,0.00014099714666479236,1.0521210457261825,0.5585012887744062,46732.31247792343
12995,Mo2.7Ru0.25Sb7,600,4.7907094178850625e-05,5.635768429859211,0.10570196740828547,378407.3678096663
8185,FeSi2.0,600,0.0002678981295951563,6.065811301061598,0.0414560567375923,5839.642660721139
12996,Cu3Sb0.98Sn0.02Se4,600,0.00021136241079774482,1.2928174142763984,0.7662784416988592,35142.629741338664
5983,Nd0.7Yb0.3Fe3CoSb12,600,0.00014958305257279443,1.9999038085287368,0.6172818221353308,88424.99577341297
13996,Cu1.97Ag0.03Se1.009,600,0.0001248642955629171,1.134046466344122,0.504349223391476,58097.21117045167
13995,Cu1.97Ag0.03Se,600,0.0001949702826319457,0.7852806034702834,0.6287766327674014,21485.635426988018
16917,Ag0.99Na0.01SbTe1.96Se0.04,600,0.0002493797749213231,0.5789621593460051,1.3112107431621844,20380.075209017392
10178,Fe0.98Co0.02Si2,600,-0.000232128263408632,4.898122628707526,0.03215259493912435,4871.2272214928835
12980,Ni0.3Mo2.7Ni0.3Sb7,600,4.410258788470058e-05,7.665350246910723,0.08005901169012095,498652.98362550006
14729,Cu1.99Fe0.01Se,600,0.00011674044820054575,1.0423675680585225,0.5886859006240642,69107.62014233338
4722,Yb0.35Co4Sb12,600,-0.00017316784277798838,2.9347471368190403,0.93648044149075,151657.3803096364
10356,Ag9TlTe5,600,0.0002927072607385306,0.2382660523457135,0.7134811532353605,3077.7312182157375
13994,Cu2Se,600,0.00015028112450355,0.8702392619000435,0.5809683208150292,35195.6822566869
13991,Cu2Zn0.025Sn0.975Se3,600,8.954608127553616e-05,2.260218355229992,0.12952900582853127,63443.72840843757
16914,AgNa0.01SbTe2,600,0.00026916721053718405,0.5403660473384719,1.1727800936245336,14701.880222360322
13630,Cu2.95SbSe4,600,0.00031112403286459405,1.2940925632917641,0.3539456074200045,8085.513546617596
12987,Ni0.05Mo3Sb5.3Te1.7,600,0.00010533644217265898,4.079615776969254,0.21155237671423746,111207.0451461676
10179,(FeSi2)0.825(TiB2)0.175,600,-0.0001029237489588547,6.542251495856682,0.03970253226123618,40866.08165364709
13990,Cu2SnSe3,600,0.00010020337434537715,1.353671824405671,0.2176098609628822,43180.016296115864
4724,Yb0.5Co4Sb12,600,-0.0001481535664540574,3.2501236783085696,0.7227070187449373,180273.12911896766
8213, Bi2Sr2Co2Ox,600,0.0001428447862580329,0.9149564270152504,0.013778476500370007,919.0926216745503
12986,Mo3Sb5.4Te1.6,600,9.851197634336575e-05,3.9115088077684437,0.2386105484169826,132373.5590625194
13993,Cu2Zn0.075Sn0.925Se3,600,5.9472474737906236e-05,3.0865398987177164,0.09461343840164096,158296.4101899064
4723,Yb0.4Co4Sb12,600,-0.00015942319568116036,3.1628307228920747,0.8184099968631056,169613.62473278143
10688,In4Se2.8,600,-0.00030969226166624046,0.7958863995933498,0.310621705642366,4408.4152775718785
12985,Ni0.05Mo3Sb5.4Te1.6,600,0.00010190110361176302,4.490271226036928,0.2147987155192978,137917.3703918563
16916,AgNa0.01SbTe2Se0.04,600,0.00024714173832981497,0.6925180340571886,1.1336501930237228,21357.868020590995
13992,Cu2Zn0.05Sn0.95Se3,600,5.2128628224493124e-05,2.685006611270976,0.1085879859635362,163221.2266506893
16915,Ag0.99Na0.01SbTe2,600,0.0002706999670908919,0.606655988463093,1.1358206389738421,15750.405206959473
10232,Fe0.97Co0.03Si2,600,-0.00024417286169613845,6.845792245758153,0.05264467286757054,10074.699699377159
16943,AgPb20SbTe20+2vol.%SiC,600,-0.0003055025271854035,0.6010795532856205,0.7495854962437665,8645.814509448091
14047, (Ge0.8Pb0.2)0.97Mn0.03Te,600,0.00012142031943385759,1.9703960372471336,0.6724131040657902,123346.14277904408
16089,Ag9TlTe5.1,600,0.0002485951571876257,0.2773692535926002,0.8159340897040079,6788.500354201745
16964, Zn4Sb2.94In0.06,600,0.00018045743698563515,0.8109347415183465,0.5578847069938596,23301.687259483282
12920,Co0.85Ni0.15Sb2.88Sn0.12,600,-0.00016202173642282798,4.423293534009236,0.3071114365977412,83927.67613695434
14048,(Ge0.8Pb0.2)0.95Mn0.05Te,600,0.00012679147190889406,1.8113751981379624,0.7166094316082103,113120.39544444726
10169,Fe0.94Co0.06Si2.00,600,-0.00017470099891344208,3.8346849919364514,0.12035061562294193,21044.95497832436
14925,Pb0.71Mn0.04Sn0.25Te1.00,600,9.195780059795408e-05,0.9049047238641288,0.009112532102934542,1442.5746594898092
12919,Co0.87Ni0.13Sb2.88Sn0.12,600,-0.00018362486818968327,4.481256774420637,0.3053534715774749,64497.2694740028
12918,Co0.88Ni0.12Sb2.88Sn0.12 ,600,-0.00018849788054563007,4.161077591972924,0.3191426970349153,57537.20047613536
14049,(Ge0.8Pb0.2)0.92Mn0.08Te,600,0.00013590444477475804,1.6433481182515317,0.7339980310360448,91048.9706819132
12921,Co0.83Ni0.17Sb2.88Sn0.12,600,-0.00015405579688155548,4.630960257176584,0.3397790500269195,131743.1766186769
16960,Zn4Sb3,600,0.0001784280037478976,0.7879602901776983,0.904849821569682,35128.971987093704
10171,Fe0.94Co0.06Si2.00,600,-0.00017154263211533174,3.9197660925943607,0.1208392052110308,22532.52197392497
12928,MoSb5.5Te1.5,600,9.212297257901065e-05,4.007362796198724,0.19874711611904847,144694.47521126724
12923,Co0.79Ni0.21Sb2.88Sn0.12,600,-0.0001315606590731009,4.585933605295105,0.3092393505106862,130508.5596871561