sampleid,composition,Temperature,Seebeck coefficient,Thermal conductivity,ZT,Electrical conductivity
1860,GaCCo3,250,1.875379846769516e-05,8.304316188327237,0.004948379246621147,445934.1601621219
12113,Sb,250,3.8497529153344156e-05,23.40308564063911,0.04092302119001063,2584848.469149198
16161,(Hf0.5Zr0.5)Te5,250,0.00012174522471442863,2.4005221651718616,0.06650797297768933,44153.69156141622
16160,ZrTe5,250,0.0001202610855706106,2.9822740136317285,0.06817255023506175,54047.64460794144
12013,Bi85Sb12Ag3,250,-0.00011401052726308276,1.2094169515797146,0.392453615307886,147399.78416606382
12014,Bi85Sb10Ag5,250,-8.928852245499705e-05,1.7487637980723618,0.10898862199334652,96961.26129631331
12015,Bi85Sb8Ag7,250,-0.00010695142070308856,1.678552692418173,0.2359608224893356,149300.4257187692
12016,Bi85Sb15,250,-0.00010128965918804897,2.1436758261381463,0.11507394815933475,96895.14037968726
1867,Sn0.9Co0.1CCo3,250,1.7709801836512605e-05,5.697442679442125,0.0037584382103763173,273098.91028859204
12011,Bi85Sb15,250,-0.00010910406409780943,1.548790486611897,0.24715073702158746,129381.53261946668
12017,Bi85Sb14.5Nb0.5,250,-0.00011369633085183596,2.4093846312665117,0.25677787017986337,192670.3794986261
12018,Bi85Sb14Nb1,250,-0.00011465747462610012,3.1644070486922717,0.2529274726504589,243801.32665433327
12079,Bi85Sb15,250,-0.0001228865169404078,3.079361350963016,0.2286968562511744,208389.96257310465
12080,Bi85Sb14.5Ge0.5,250,-0.00010825476538058924,3.3936243016200054,0.093701725502236,115520.32349746846
1864,Sn0.95Sb0.05CCo3,250,5.073300010648765e-05,2.9828057947778053,0.03292395222601555,152621.54370704293
12081,Bi85Sb14Ge1,250,-8.644309772889217e-05,2.57449904712296,0.08064309741666517,101556.48459723376
1865,Sn0.95Co0.05CCo3,250,5.815171217565071e-05,4.148838979663676,0.03308917490081093,182157.4064039393
12019,Bi85Sb13Nb2,250,-0.0001234247245664163,2.8904731041136063,0.3776835899585994,280657.79307567
12933,Cr0.95Mn0.05Sb2,250,-8.041129688699185e-05,9.130661686768175,0.00940600508602448,57071.286873633515
12932,Cr0.97Mn0.03Sb2,250,-8.867857878824169e-05,9.360806482491123,0.009436513969820272,53167.278531695185
16101,double-walled carbon nanotube,250,-2.702999418059509e-05,26.60188400181672,0.00116655324414569,169836.39242250257
12926,MgNiSb,250,2.1780860042521266e-06,21.211607646626955,0.00015766367984393538,2819779.745066707
12889,PtSb2,250,-5.575068162084839e-05,16.64296948837888,0.012684620538568529,270338.6664040571
7488,Cu4SnS4,250,0.0001381111520770924,0.24557042218527306,0.0024888284079854998,128.16619979335823
13005,Zr3Ni2.9Co0.1Sb4,250,0.00011056488908885181,2.271662697090251,0.1295601142479279,78532.75076917888
12842,Pt0.97Ir0.03Sb2,250,4.949099100288479e-05,10.51664826348922,0.03811302676337845,641319.1888342798
12843,Pt0.9Ir0.1Sb2,250,2.948840967602052e-05,8.592840738579662,0.023437444146075816,903084.3442742523
12840,Pt0.99Ir0.01Sb2 ,250,8.701377740505601e-05,12.407216514645276,0.0709975504943016,397984.8153998378
11895,Bi85Sb15,250,-0.00012599702312330788,3.081326218204227,0.23740536727039535,209252.32791936985
11896,Bi85Sb14.5Pb0.5,250,7.954598446939827e-05,2.6288170729490536,0.05953897735094465,88226.51989661132
16339,Ge3.5Sn0.5SbTe5,250,0.00010237158543601336,1.273237402011696,0.07889276748060711,38339.61182307557
11897,Bi85Sb14Pb1,250,7.953954537527411e-05,2.836539653451565,0.08426792714376688,147356.86268534634
11898,Bi85Sb13Pb2,250,7.304978083625383e-05,3.2460493015507503,0.07119124314178253,162891.66993261213
16353,As1.965Bi0.035Te3,250,9.457652037352531e-05,1.2835000920874402,0.14201373010210824,86064.98179353055
16352,As1.975Bi0.025Te3,250,9.522840427782986e-05,1.26377022736592,0.1385539854816596,91794.4129902213
16351,As1.985Bi0.015Te3,250,8.452077006942904e-05,1.4198592179036085,0.13703393163474198,104042.55708379633
15193,SnSe,250,0.0004560079718398808,0.16631867277577672,0.0019644747009336648,6.284960784956708
15194,SnSe,250,0.0005281287754434286,0.09277207662211813,0.0017308191319772778,2.302763274686632
16344,GeSn3SbTe5,250,5.05192759347406e-05,1.3825269122521495,0.03864558499019154,83737.35451316697
16343,Ge1.5Sn2.5SbTe5,250,5.6602638341946215e-05,1.2682454510848111,0.04924641841492513,77976.65580571134
16342,Ge2Sn2SbTe5,250,6.087863778377171e-05,1.0217825820993265,0.06489072435682246,71560.15232331901
16341,Ge2.5Sn1.5SbTe5,250,6.625331535758853e-05,1.3633475869381149,0.05470836190116372,67968.08991255496
16345,Ge0.5Sn3.5SbTe5,250,4.630437703780176e-05,1.8175620097102616,0.03845643496160845,130398.96900836685
15207,CeOs2Al10,250,2.716291878045657e-05,5.544352323430801,0.01866333073164481,560979.6327160216
16350,As1.965Bi0.035Te3,250,9.52546531415608e-05,0.8483993216617212,0.10954288923417327,42324.73721253822
16349,As1.975Bi0.025Te3,250,9.5520901400615e-05,0.978799608512006,0.10769697042401707,49040.413382570754
16348,As1.958Bi0.015Te3,250,9.103870726936313e-05,0.7081449009350049,0.11649409204486487,39161.066782570524
16347,As2Te3,250,8.562268553952711e-05,0.9446658624153004,0.10392590817521258,45039.17099937128
16237,FeGa3,250,1.2071353407722185e-06,3.818274225261,1.969344999854427e-06,20641.296979969833
11941,Bi0.67Sb0.33,250,-5.861784211272117e-05,3.2585238535271923,0.04100706624321658,134296.98788500042
11942,Bi0.85Sb0.15,250,-0.00010065969370878506,3.0263825097156536,0.13638841176937205,141566.23699277855
13177,Cu2Sn0.5Ge0.5Se3,250,9.973810627062668e-05,3.3072886331263787,0.01947996055308417,25905.854778879144
11940,Bi0.67Sb0.33,250,-6.062774481898634e-05,2.5705299001754267,0.025867257438083158,67747.24047706736
11943,Bi0.85Sb0.15,250,-0.00010104905385119605,2.5837353331938457,0.08032280690991725,79116.65864848523
11959,Bi85Sb13Pb2,250,7.747295226069199e-05,3.619072172108796,0.0734783791200105,167732.1005470637
11960,Bi85Sb12Pb3,250,7.626774483589536e-05,3.6011389614852014,0.06996958166623747,161463.0832347121
11974,Bi0.88Sb0.12,250,-0.00010350586236978148,3.8899611367719857,0.2439240886883827,355346.9614968091
2871,Co2TiSn,250,-1.9875800211978567e-05,5.922434461176432,0.005297895434326173,317697.93484275
13173,Cu2SnSe3,250,0.00010953396521346532,3.701780885594156,0.009261897466210482,11430.705855034197
2868,Co2Mn0.2Ti0.8Sn,250,-5.6418806900014215e-06,2.121593152232837,0.00022624478182454522,60318.824865450166
2866,Co2Mn0.4Ti0.6Sn,250,-3.2638999574631787e-06,3.641513505715416,0.0001845352269816309,252317.5868538477
11958,Bi85Sb14Pb1,250,7.773834536597291e-05,3.5825093412109115,0.07262448510963848,154532.71163058016
11956,Bi85Sb15,250,-0.00011420762025647837,3.4505535931968803,0.19514034217907675,208386.3411324932
2865,Co2Mn0.6Ti0.4Sn,250,-2.047265337987482e-05,4.300131662605444,0.0049463226069631,202990.59462828905
2864,Co2Mn0.8Ti0.2Sn,250,-7.570607394804062e-06,6.0104591101579325,0.0013268178797124794,556567.0663106432
16526,Zn4Sb3,250,9.292132914874266e-05,1.2028193695498073,0.0449823019938862,25303.657702636592
16832,Ag0.8Pb18SbTe5Se15,250,-5.177416306020779e-05,1.0781092509531522,0.04965505171353623,81397.67795555542
16831,Ag0.8Pb18SbTe10Se10,250,-0.00014972401454255822,1.318000482071379,0.4150819046828996,97152.16590656653
16830,Ag0.8Pb18SbTe15Se5,250,-0.00018889966082617825,1.4704474389728257,0.3877592966184447,63494.68009209357
17197,Zn4Sb3,250,9.458003204125031e-05,1.2043807518824408,0.04507546147736687,23027.136663621626
16850,Bi2Te2.7Se0.3,250,-0.00011439698066858591,0.9879870990435276,0.10641436507848327,33165.049603936175
16848,Bi2Te2.7Se0.3,250,-0.0002259972564664565,0.5895138523875896,0.3809610296388541,17692.405285175075
16847,Bi2Te2.7Se0.3,250,-0.00017791931025744844,0.3740145923358439,0.2622270899007734,13122.532187774643
17201,Zn4(Sb0.985Se0.015)3,250,6.14924705377828e-05,1.1839853932203792,0.03149227604335877,39442.68779596009
13899,CuInTe2,250,6.654836425507024e-05,2.0323375075044456,3.5698850343633645e-06,6.552926302045377
16829,Ag0.8Pb18SbTe20,250,-0.00018215044965378552,1.7392803063109896,0.2229811283793964,49232.45634197044
14248,Ni0.06Mo3Sb5.4Te1.6,250,5.6952187162775674e-05,5.7231459776017095,0.028329405401089768,199945.41962978148
14576,CuGa3Te5,250,0.000260165455386718,0.8008798896799112,9.990931768734931e-07,0.047286166983322685
5785,Yb3Co4Sn13,250,1.3509573956907804e-05,11.806322560962233,0.005883543043024481,1465151.7051141954
5782,Yb3Co4Ge13,250,-2.1951472804775864e-05,9.777282231895274,0.005284404500170104,495872.9422609474
5214,Co4Sb12,250,8.380100632785639e-05,7.728310571096642,0.004578050101375357,17951.32190878014
14247,Mo3Sb5.4Te1.6,250,4.087288270310745e-05,4.4962333476289436,0.017819605556487497,191838.77050598274
5220,Yb0.6Fe0.5Co3.5Sb12,250,-0.0001105706703450113,0.4744142259490888,0.4549435717648763,70614.73645872409
5219,Yb0.6Co4Sb12,250,-6.105951595839595e-05,1.4438069785033234,0.14341027866179915,222148.14611767087
14591,K1.46Sn3.09Bi7.45Se15,250,-4.985141588445405e-05,1.209066699963809,0.006357731121704344,12372.498588672408
14590,K1.25Pb3.5Bi7.25Se15,250,-2.175718455940259e-05,1.3736617294954534,0.006933801751661161,80483.3081380892
5124,Ca0.05Co4Sb12,250,-0.0001810602072772009,6.147747968222188,0.04682064308890228,32635.74913975582
5125,Ca0.08Co4Sb12,250,-0.00013284963663809274,5.826857879374876,0.0208573773024248,30218.20407813245
16787,Bi0.45Sb1.55Te3,250,0.0002572198764578864,0.3925125495590113,1.5448440684850284,37500.1471238234
17209,Zn4Sb3,250,0.00010288538826502056,1.1504324275039646,0.0499921745146872,18498.142015387133
16789,Bi0.48Sb1.52Te3,250,0.00019544585134505463,0.4097040567231174,0.9999616891341468,42119.32582258085
5123,Ca0.03Co4Sb12,250,-0.0002156928359858788,6.661199543068558,0.034491122287919736,19867.94841412733
16788,Bi0.45Sb1.55Te3,250,0.00019235757047942768,0.39580697851257696,1.0645717261033307,45062.9597280814
5126,Ca0.2Co4Sb12,250,-0.00012310128102971114,4.07673148208351,0.03068731318286859,31652.881032114718
17207,Zn4Sb3,250,0.00012508603268929718,0.8959808873535098,0.056230207178578406,12826.96014589552
16813,(Zn0.995Bi0.005)4Sb3,250,0.0001148915463395287,0.9825537789936118,0.058858486453281074,14768.648670308037
16812,(Zn0.9975Bi0.0025)4Sb3,250,0.00010569801686834813,0.7938306840855641,0.06709558599854121,17127.872528978558
16811,Zn4Sb3,250,9.36038773299602e-05,1.1887282766002274,0.045297079921939785,23908.868173180566
16816,(Zn0.99Bi0.01)4Sb3,250,0.00012716016363853834,1.1857381766881303,0.04231756769516677,12029.88686893075
14880,Bi1.7Pb0.4Sr1.8Nd0.2Ca1.1Cu2.1O,250,-3.010804849649438e-06,3.7908761926527133,2.4393794399231782e-05,40805.033385284616
14881,Bi1.7Pb0.4Sr1.7Nd0.3Ca1.1Cu2.1O,250,1.1135776048167767e-05,2.47386127868404,0.000320408480495878,25568.094346732967
14882,Bi1.7Pb0.4Sr1.5Nd0.5Ca1.1Cu2.1O,250,2.278191115555505e-05,2.5811900277510937,0.0009241999889982733,18385.084114227542
17206,Zn4Sb3,250,9.348523730896466e-05,1.2577213103702902,0.046451479638040236,23716.14255642932
14558,CrAuTe4,250,5.298682758508576e-05,3.888469164511457,0.02084711752518674,121281.29673461133
14878,Bi1.7Pb0.4Sr2Ca1.1Cu2.1O,250,-4.893881901962564e-06,4.135317473951249,0.00018185345997978136,125598.20903207241
14879,Bi1.7Pb0.4Sr1.9Nd0.1Ca1.1Cu2.1O,250,-2.8906008217452507e-06,4.331913064548076,4.318946635843861e-05,89565.61618973418
17018,(Zn0.98In0.02)4Sb3,250,8.964779481586708e-05,0.9586248618858524,0.05304509530542315,23750.2311263842
17017,(Zn0.98Ga0.02)4Sb3,250,6.742339323559022e-05,1.0038426088251249,0.035434400939831,27969.438708684902
17016,(Zn0.98Al0.02)4Sb3,250,9.085968856640204e-05,1.0038426088251249,0.08175383700402553,37300.12356704072
14122, CuIn0.75Ga0.25Te2 ,250,0.00014670871426087587,52.443384246341026,0.0024427511652359885,23035.405574781907
14124,CuIn0.5Ga0.5Te2,250,0.00013121400147900777,49.50395593562096,0.0016583190813896258,19072.50050254463
17014,(Zn0.98In0.02)4Sb3,250,9.0759108700316e-05,0.9589145654570445,0.053698694728846884,23565.751255717485
14652,Cu5SmSe4,250,2.901614731456674e-06,8.59927428172282,2.448084797276673e-05,100015.83260008227
17013,(Zn0.99In0.01)4Sb3 ,250,7.310498296274622e-05,0.96703079318696,0.041004492161187914,27778.92714809107
17050,(AgSbTe2)15(GeTe)85,250,6.866231214064803e-05,1.8974265851922612,0.11533685739528622,180110.36568657027
17051,(AgSbTe2)15(GeTe)85,250,8.899919586221381e-05,1.5547544236702533,0.16003968668760876,120221.17505491125
17052,(AgSbTe2)15(GeTe)85,250,5.590994661983644e-05,2.0545607556583736,0.0745038304172764,193673.41890947288
14687,GaPd2,250,-5.6338690260833375e-06,17.857491813545032,0.0011732017165885509,2640217.1505390718
14121,CuInTe2 ,250,0.00013616151568592537,59.881724426503105,0.0022737460301049165,30068.114638494702
14689,GaPd2,250,-6.86807984238722e-07,34.03779602657324,1.7502036719167152e-05,5051720.835689379
14688,GaPd2,250,-8.811823090150627e-06,33.65035976740755,0.00292324121977321,5067372.357701784
9820,Pb5Bi6Se14,250,2.373884205363389e-05,1.105733630158377,0.006095630585941752,47842.08382762378
17159,Zn4Sb3,250,9.34961074263838e-05,1.2050602544105071,0.04432182064767151,23801.050488582558
14619,Ba0.5Cr5Se8,250,0.0001668581908410329,1.0081269922748914,2.560022912116885e-08,0.0037078659579485775
17160,Zn4(Sb0.995I0.005)3,250,0.0001090662052550528,1.0659540327065449,0.06392246139932181,21291.99470048258
17161,Zn4(Sb0.99I0.01)3,250,0.00013708915221973816,1.102590754272853,0.04732293120310794,12170.259552518659
17162,Zn4(Sb0.985I0.015)3,250,0.00013533424738996523,1.259297045178478,0.04278375843508443,12257.566128253335
9822,Pb5Bi18Se32,250,4.313336908979032e-05,0.7131769940250205,0.015201385408898274,23308.467660733546
14621,Ba0.52Cr5Se8,250,9.296594078312809e-05,0.9211216581756174,9.841472291119937e-09,0.004195554067631925
9821,Pb5Bi12Se23,250,2.301929460082341e-05,0.8918692797892169,0.005561169743263087,37440.645312484216
14620,Ba0.51Cr5Se8,250,0.00013168394027858335,0.8509003404862555,1.0988256749303653e-07,0.02156760201906381
17135,Zn4Sb3,250,0.00014205262333691498,1.6057542302536387,0.0989689777423995,31502.109282061734
14622,Ba0.55Cr5Se8,250,7.025221635022814e-05,0.8378279548058555,6.970553782856737e-09,0.004733278519989996
17120,Zn4Sb3,250,0.00020979233303971184,0.7135839083777581,0.12304765420018543,9178.71333453703
9695,CsBi4Te6,250,-4.3110615902440274e-05,1.1124743737415859,0.0009210096150080008,2205.188485457664
10140,MnSi1.73,250,9.560125513729929e-05,2.679440725807529,0.3052986494896315,358015.50896061235
10092,MnSi1.78,250,9.926102514556262e-05,2.9795845647391332,0.28840314029938685,348865.6256135683
10978,CoO0.09N0.91,250,-4.3958847403178005e-05,3.9088002984373342,0.002001623536969461,16195.459703892373
13753,Tl2CdSnTe4,250,0.0004887063326706591,0.4322872143403295,2.2810015315904425e-05,0.16514370568866546
17292,CePd3,250,9.785614915762496e-05,9.122214626744203,0.21018845035738384,810023.0596443716
13754,Tl2HgGeTe4,250,-0.0003758887187983427,5.468950723090364,9.522992697721786e-06,1.4744120419935842
11005,CuCrSe2,250,0.00012974590008808212,2.164748723834258,0.13310289137223058,73125.05898078218
13755,Tl2HgSnTe4,250,-0.0005770531564160338,5.227809757636255,2.021603972615446e-06,0.12695336213007472
13752,Tl2CdGeTe4,250,0.00038569636194324733,0.5482614061188502,1.4459612438807397e-06,0.021316369255632274
10112,MnSi1.73,250,0.00010073139917069084,1.128536236063637,0.1088917285732734,48444.07399976144
13782,Ba3Cu13.88Te12,250,2.095862889638992e-05,1.1415316111853708,0.0020699095947714807,21516.596499315518
10127,Mn0.97Cr0.03Si1.74,250,9.354116824742808e-05,2.8599875612387926,0.06620069089132233,86552.7913166922
10111,MnSi1.73,250,0.00010093357374048408,1.902429556614831,0.014951465191866766,11168.14461666824
10089,MnSi1.73,250,0.00010260512556857973,2.0626041166993594,0.30217510265659303,236808.0368310797
4712,Ca0.18Co3.94Ni0.06Sb12.40,250,-9.967266199978243e-05,5.4613703651851555,0.08007230226682932,176072.61802137602
13715,NbTe2,250,8.9907537080544e-06,3.506774914881603,0.0009793843032476518,187871.20221044973
13714,Mo0.2Nb0.8Te2,250,1.0750084254561036e-05,3.276376026458915,0.0016576503422674172,208098.00009281022
10152,Mn0.95Cr0.05Si1.74,250,9.632289675218579e-05,2.5587636721355422,0.0621755708688297,68588.43276552788
4705,Ca0.08Co4Sb12.45,250,-0.00010300646688910824,5.123481534690941,0.00016280792843217524,314.46457948768347
13716,MoTe2,250,2.492597930314819e-05,5.316785519957984,0.004046208072524351,138337.06455110759
16673, AgSbTe2,250,0.00018376081493578903,0.8529839437517857,0.20707541556546474,20922.981583953548
4710,Ca0.15Co3.98Ni0.02Sb11.80,250,-0.00010265938908596296,4.2456991448697785,0.0682841291470408,110035.19861844246
4708,Ca0.10Co3.95Ni0.05Sb12.34,250,-0.00012457072320888423,5.664786535036867,0.0006544983411099206,955.696771591217
17294,CePd2Pt,250,0.00010292402663788083,6.884206741258787,0.2831693770312144,756331.1038040413
17293,CePd2.5Pt0.5,250,0.00010097591125747509,7.77550507419414,0.2380648191871443,721832.3573382294
4706,Ca0.08Co3.98Ni0.02Sb12.15,250,-0.00012975666764094966,5.628164005832511,0.0004328928403971272,578.825654515093
13712,Mo0.6Nb0.4Te2,250,1.600495257265519e-05,2.8571491954882764,0.0020757908813771463,103998.99668967916
17295,CePd2Pt,250,0.00010428952256561684,7.261038808094966,0.2760049327554186,713792.8420509279
13711,Mo0.8Nb0.2Te2,250,3.576933361467397e-05,6.979258146586428,0.011859006633611226,274295.97426711034
4709,Ca0.20Co4Sb12.46,250,-9.264377262599591e-05,3.8220085131233863,0.019761365045619532,35199.46950099087
4707,Ca0.10Co3.98Ni0.02Sb12.15,250,-0.00012519732872689544,4.696837850770104,0.0005891789973843012,706.1918323984453
17338,Al32Mn34Si34,250,-0.00024341292524222692,7.502847241812859,0.022293624646095724,11292.224641641158
13710,Mo0.9Nb0.1Te2,250,4.789047486361817e-05,6.148361789842171,0.021438011948661708,236700.24232897675
9461,GeBi4Te7,250,-0.00010384345278435974,0.30693522858048605,0.10252873087688016,12561.344395418097
17257,Bi-92%,250,6.634374679567131e-05,4.900578725845773,0.08496104216592809,378379.1549493353
17256,Bi-85%,250,6.433923548483139e-05,2.794983752728667,0.02925927987327876,79022.56456346661
10123,MnSi1.74,250,9.026320468715251e-05,3.0214980113790633,0.05326858844770089,79019.08484466244
17255,Bi-78%,250,6.51214145404378e-05,2.112288293527619,0.006893452720821594,13734.167310063767
9470,GeBi4Te7,250,-0.00011233750069655298,0.6204901664836968,0.08605164106495837,19727.375283233647
9471,GeBi3SbTe7,250,0.00014729776419818779,0.6865045272059274,0.1656904882273632,24669.835444080243
14342,EuFe4As12,250,2.2595911671013506e-05,8.35641820728437,0.0047762224243964035,312683.4999747125
1344,Si0.8Ge0.2B0.016 ,250,0.0001452103016834951,2.6229325483812453,0.09388845737282922,46715.87221130433
10119,MnSi1.73,250,0.00013853314182350778,2.01337080396503,0.003958548894491649,1661.1635913917512
1345,Si0.8Ge0.2B0.016 (CrSi2)0.091,250,0.00021051307700422728,3.0150158533451483,0.09572643578502854,26050.93539622258
17259,Bi,250,0.00010425150533343192,6.9521747507608165,0.3609281286405042,923499.642879206
9468,GeBiSb3Te7,250,4.5791891127075345e-05,0.5984335053120766,0.028628836248293262,32681.53359025056
16709,(Zn0.99Ag0.01)4Sb3,250,9.243016189505652e-05,1.5826349191271103,0.0432696132986686,35609.45998291109
16708,(Zn0.995Ag0.005)4Sb3,250,8.727145336479635e-05,0.8735208901609575,0.06166199065322137,26773.313527244263
9467,GeBi2Sb2Te7,250,9.210394123496544e-05,0.4422589497517975,0.10085016351613046,21030.848707924462
11074,Sr0.95La0.05Ti0.02Mn0.0126O3,250,-0.00013051360566005427,4.014031603650442,0.1301853382994827,121332.92024643374
9466,GeBi3SbTe7,250,0.00011721239784941345,0.3331597328496699,0.1570600050614193,14709.672420266394
9469,GeSb4Te7,250,3.7413456933484616e-05,0.8372310086772401,0.0401064671951897,95954.20880312103
16707,(Zn0.9975Ag0.0025)4Sb3,250,0.00012866154403756534,0.9592783357811432,0.060764576827684935,14423.824876115435
11075,Sr0.95 La0.05 Ti O3,250,-0.00010792015223456959,8.49934800668095,0.06699642002753033,183604.0936728795
16706,Zn4Sb3,250,9.331327451807465e-05,1.1958169425213612,0.04588198631944787,23400.123150831558
17258,Bi,250,4.783358903175893e-05,11.962526258308705,0.0522087932370982,1091844.0570332785