sampleid,composition,Temperature,Seebeck coefficient,Thermal conductivity,ZT,Electrical conductivity
539,Ba24Ga4Ag1Ge95,450,-3.763136522562802e-05,2.6037716658303323,0.0397367107262771,166679.04238450062
538,Ba24Ga4Ag0Ge96,450,-3.367237452939202e-05,2.9677778969616657,0.030393158351552457,185740.31787485126
542,Ba24Ga0Ge100,450,-2.909368210694676e-05,3.5334339314027208,0.0252576063008402,199207.31444951505
543,Ba24Ga4Ge96,450,-3.473258036731832e-05,3.0745392972430117,0.03252354576211647,195743.32918345628
16807,AgSbTe2,450,0.0002029506634787452,0.7596210542941426,0.6583055875106922,26382.432495574303
16808,Ag(Sb0.97In0.03)Te2,450,0.00022284724090263354,0.7144313024122355,0.7276131883430551,22106.21680332364
16809,Ag(Sb0.95In0.05)Te2,450,0.00024516180036000866,0.6736244214537929,0.82624581170637,19781.667751055444
16810,Ag(Sb0.93In0.07)Te2,450,0.0002620371093533837,0.6509754411845367,0.9107193020821864,18589.49822843784
16814,Ag0.366Sb0.558Te,450,0.00040358062356420717,0.5504973866283775,0.4736563893001925,3507.822718133777
16815,(Ag0.366Sb0.558Te)0.99 (GeTe)0.01,450,0.00024560809974991126,0.5957798768126438,0.3120892657216527,6919.873378906618
16817,(Ag0.366Sb0.558Te)0.98 (GeTe)0.02,450,0.00023025366262773253,0.6845840404289574,0.3258103043993129,9286.89692573993
16818,(Ag0.366Sb0.558Te)0.96 (GeTe)0.04,450,0.0001888034936740052,0.8199770246829504,0.22481709847049225,11322.021333893766
16819,(Ag0.366Sb0.558Te)0.92 (GeTe)0.08,450,0.0001496748329446578,0.9930373558340976,0.12296744211984086,11871.700910195226
16820,AgSbTe2,450,0.00027398941753357795,0.5658951107255381,0.8396792358502739,14114.156728134549
544,Ba24Ga9Ge91,450,-4.602515424015535e-05,2.236055709902856,0.06274805478882994,148963.10706191312
16821,AgSbTe2,450,0.0002734458668081942,0.4769130849913178,1.1684207102335886,16177.514454947104
16822,(GeTe)75(AgSbTe2)25,450,0.00020889823317202108,1.2131830722287162,0.8608598084739033,53053.18571717366
16823,(GeTe)80(AgSbTe2)20,450,0.00021120426197160093,1.16895122421748,0.6860478467729849,38978.35507284693
16824,(GeTe)85(AgSbTe2)15,450,0.00015440952312825663,1.6008468278222616,0.7074600597772767,100003.55865905926
16825,(GeTe)90(AgSbTe2)10,450,7.759231182215711e-05,2.412691164148961,0.2179864913814212,180608.48708822363
16826,AgPb18SbTe20,450,-0.000360810429953923,0.872245819979108,0.13671982116954692,1753.5525170194874
16751,AgSn15Pb3SbTe20,450,0.00011364535280011975,2.118553679268413,0.18185529508224665,57739.689400008865
16750,AgSn9Pb9SbTe20,450,0.0001593350350740143,1.3378598833733562,0.37714172378918265,35854.26202630208
16749,AgSn3Pb15SbTe20,450,0.00019731648907960145,1.237482282805077,0.3355705150797306,21730.29594988134
16672,AgSbTe2,450,0.0001980687392766116,0.7480784794782841,0.8906748936230653,39601.37710462308
16671,Ag0.84Sb1.15Cu0.01Te2.16,450,0.00027186001300360185,0.7978552603816338,0.915632383768384,20742.15707152912
16670,Ag0.84Sb1.15Yb0.01Te2.16,450,0.00026517082780862987,0.8261229119065251,0.9928146533530616,23843.1305921742
16669,Ag0.84Sb1.15Ce0.01Te2.16,450,0.0002882237930812047,0.8778238825241043,0.9771672459323272,22898.128141560806
16668,AgSbTe2,450,0.00029124523532080763,0.7309450176161093,1.2191569488917968,22236.01845670425
16655,AgPb18SbTe20,450,-0.00027487087587504483,1.1078036636949586,0.5139787120375503,15237.684452147605
16657,AgPb18Sb1.5Te20,450,-0.00012108731133213496,1.334075715104769,0.3880781118234089,80113.36483222798
16658,AgPb18Sb2Te20,450,-0.000149725818245784,1.2653464517248865,0.5453473014560142,56505.81337366701
1339,Si80Ge18Sb2,450,-0.00034862599959757174,3.064133810188939,0.2480997164687445,11587.767547872378
16730,(Ag0.365Sb0.558Te)0.975(GeTe)0.025,450,0.0001003110408486193,0.8230191818985281,0.4151878381864509,70931.82489340706
16732,Ag0.365Sb0.558Te,450,9.692493063993852e-05,0.9215123549141933,0.357246942557331,71201.32912559705
16740,(GeTe)80(AgSbTe2)20,450,0.00016258846016097976,1.4397833272040697,0.6682775408108895,79057.15271755218
16741,(GeTe)80(Ag1.2Sb0.8Te1.8)20,450,0.00017062024489522228,1.4576212845141023,0.7716829930121198,86655.58377365183
16742,(GeTe)80(Ag1.4Sb0.6Te1.6)20,450,0.0001529671069112194,1.5544406850770605,0.5404524124532604,75787.60761076545
16743,(GeTe)80(Ag0.8Sb1.2Te2.2)20,450,0.00016929134184707378,1.5506775701558035,0.6966756816782291,82151.8248549065
16744,(GeTe)80(Ag0.6Sb1.4Te2.4)20,450,0.00018402908062536345,1.575118600586575,0.6943544304220708,71614.02987663126
1312,BiTe,450,-0.00014045917712154235,1.3779825735671365,0.7239678282658961,111208.30313632652
16710,AgSbTe2,450,0.00021906880354457742,0.7534698151265913,0.7128342094532428,25612.569165839464
1311,BiTe,450,-0.00012573682868603601,1.2425566712601108,0.5844890762693415,100299.49416371748
16711,Ag(Sb0.97Bi0.03)Te2,450,0.0002894544564276129,0.597675981947755,0.4968086686707766,7954.2360263915225
16712,Ag(Sb0.95Bi0.05)Te2,450,0.00025492609589268777,0.5455338982924236,0.7785561857954897,14315.157399295469
16713,Ag(Sb0.93Bi0.07)Te2,450,0.000283808073651032,0.6685125533125894,0.44109423219447497,8957.4247700226
16714,Ag(Sb0.9Bi0.1)Te2,450,0.00021492177210870162,0.8407294298932164,0.1767349131132914,7338.1322165394995
14096,Tl9LaTe6 ,450,0.00017686715106879117,0.3624343603777498,0.3929306282163541,11400.424547376397
14097,Tl9CeTe6,450,0.0001313059296262157,0.4401077594525583,0.3547378123069387,21835.9530328279
14098,Tl9PrTe6,450,0.00011763291930080048,0.5299139391088763,0.3496237136267454,32235.31368030717
14099,Tl9NdTe6,450,0.00010455523777128205,0.6407195191537067,0.2835001204799896,39534.876499394944
14070,In4Se2.35,450,-0.00033256135440069503,0.9214077140206592,0.0858361118380218,1589.1533456789546
5621,,450,-0.00014419855080664804,0.9085556027784064,0.4179194143082913,41116.90402292753
14100,Tl9SmTe6,450,8.60551811780924e-05,0.8464648131644161,0.2089074977429869,55953.54671734168
14101,Tl9GdTe6,450,9.139208711412111e-05,0.7733232072982696,0.24700493000439985,51644.432033708734
14121,CuInTe2 ,450,0.0002013112626280661,48.81434625728293,0.006560932243216282,18693.94928283757
14102,Tl9TbTe6,450,8.081662943338935e-05,0.9009116698875564,0.19729139932163955,62146.6619254947
14103,Tl9.1La0.9Te6 ,450,0.00010503477018630572,0.649726576731519,0.22056242564202266,29570.235095043903
14104,Tl9.0.5La0.95Te6,450,0.00012532057176213829,0.5347859048426731,0.27061678789657323,21820.177667436124
14105,Tl9LaTe6,450,0.00017785816694547492,0.3685672728311842,0.3892888903335133,11638.451403872688
14106,Tl8.95La1.05Te6,450,0.00022553088836252988,0.31263797412008665,0.3539167307164064,5636.950940410196
14064,Bi2Se3,450,-9.934333977907138e-05,0.4040795453312944,0.2052985452337432,18007.307790290542
14015,Tl9.32Gd0.68(8)Te6,450,5.474795640373089e-05,0.9929645079472788,0.07323708238420483,57512.954177800624
14016,Tl8.83Gd1.17(5)Te6,450,6.615622625941155e-05,0.8475081510093321,0.046464124862720516,19145.8775865602
14013,Tl9.5Gd0.5Te6,450,3.6154066179356815e-05,1.670921168529078,0.03859036885930453,107708.12414158604
14012,Tl9.75Gd0.25Te6,450,2.9592148315930444e-05,1.7861140064472445,0.031841935742464016,146023.47214064345
14004,Cu2Se1.01,450,0.000117926370710113,0.9712019992721102,0.4920765991135619,65423.71412584121
14005,Cu2Se1.01,450,0.00011853601512878801,1.0036310264161274,0.4564248023044158,65436.7569094119
14006,Cu2Se1.01,450,0.00011619048991874846,0.9174794094617328,0.4752858061435004,66813.06915097822
14007,Cu2Se1.01,450,0.00012094580522367024,0.8693727448003641,0.5175263219376794,60270.397289485925
14008,Cu2Se,450,0.00016013851069373732,0.6985317045516363,0.6548624711027621,35909.238496148806
14009,Cu2Se1.02,450,9.261955719581228e-05,1.51260030551577,0.3005662431166895,108272.4172842834
14122, CuIn0.75Ga0.25Te2 ,450,0.00020778027666244569,44.014455801433954,0.007558304215152056,17127.09948711613
14051,Ge0.8Pb0.2)0.87Mn0.13Te,450,0.00010778252253944764,1.4642788926774617,0.4076505265994864,96060.50378656725
14052,(Ge0.8Pb0.2)0.82Mn0.18Te,450,0.00014453796049776165,1.3352097345235208,0.4822597811301936,63039.8390595878
14054,AgPb18SbSe19.964Cl0.036,450,-0.00018192016861429686,1.0406536906963706,0.463540481825154,26356.461699351268
14057,AgPb18SbSe19.73Cl0.27,450,-0.0001525500289577044,1.2232171017145017,0.442606344547114,45569.86606817374
14058,MgAg0.97Sb0.99,450,0.00024005029397706934,0.8392514884731056,1.0826583779185452,34304.643313936336
14059,Mg0.995Na0.005Ag0.97Sb0.99,450,0.00022499633373356665,0.8577912642662829,1.1142495805322348,38733.962660215366
14060,Mg0.9925Na0.0075Ag0.97Sb0.99,450,0.0002149110703290233,0.8656888236663759,1.1203627394124058,46109.647432056394
14061,Mg0.99Na0.01Ag0.97Sb0.99,450,0.00022226191797608067,0.8676140295370603,1.1055411069058416,42226.23556613597
14056,AgPb18SbSe19.856Cl0.144,450,-0.00014581781815709518,1.244927789317846,0.4340552631985452,45852.69950287156
14041,AgSn10SbTe12,450,8.558067335750897e-05,2.320865539485766,0.2768211994586107,188140.90995009826
14042,AgSn4SbTe6,450,0.00010513940827761557,1.920585601654733,0.4230876779877919,158662.8865071336
14043,AgSn2SbTe4,450,9.32939548622544e-05,1.5826980126678705,0.3553548985420369,139617.13887812258
14250,TlGdTe2,450,0.0001042666223498325,0.4832344137367369,0.3861887600984188,38086.946873756206
14267,Cu2.1Zn0.9SnSe4,450,8.056423236325327e-05,2.3276698150781594,0.07466526220473557,66911.68391155651
14268,Cu2.1Zn0.9Sn0.95In0.05Se4,450,9.11212981577386e-05,2.5640776608978832,0.07130731248814283,51129.85950476707
14271,Sb2Te3,450,0.00017589351596654926,1.4142079530198988,0.6016475707442388,53204.00124001087
14243,RhSn1.5Te1.5,450,0.0001206436981884086,3.8601634261671616,0.13403107756403748,79647.15595819306
14244,IrSn1.5Te1.5,450,0.00016675323418975256,2.997811919548937,0.10317712407759466,23506.74887235791
5224,In0.3Co4Sb12,450,-0.00016429507284823044,3.0245693087238807,0.5820514452248313,163619.6552901495
5223,In0.3Co4Sb12,450,-0.000183502183416613,3.089246128737462,0.5708181811783412,116677.58239994824
14313,PbSe,450,0.00029559074064342027,1.093697860060058,0.0798826837721987,2056.0577903419307
14321,In4Se3,450,-0.00047207072920085486,0.6314876050008678,0.15143355763780286,911.9100878754198
14322,In4Se3,450,-0.00037081509576302184,0.7376171844700419,0.12779130922874282,1273.0390974484235
14323,In4Se3,450,-0.00042027323776500303,0.7032940011495807,0.1400561726704601,1154.2791061076994
14283,CuIn0.95Mn0.05Se2,450,0.00040928642536673215,2.7125916549419005,0.010267274312948636,320.29348824031035
14284,CuIn0.9Mn0.1Se2,450,0.0004691734953392091,2.740010222793484,0.009652005167561107,240.5970732283774
14285,Cu0.9In0.9Mn0.2Se2,450,0.0005315911767164447,2.286413892417652,0.008840025800209246,148.71163060610309
14286, (BiSe)1.09TaSe2/TaSe2,450,-8.414954866723779e-06,4.434619843685119,0.0025908045474842827,360557.84629487025
14287,(BiSe)1.09TaSe2/TaSe2,450,-1.4854491195480639e-05,3.0333467042294737,0.005772229472776247,176334.61127894834
14291,Cu3Sb0.99Al0.01Se4,450,0.00035014824762380394,1.4885867753469069,0.18168967707954675,4144.102367285053
14292,Cu3Sb0.98Al0.02Se4,450,0.0003340533578440592,1.5712827494045392,0.18047173868110436,4951.764389184839
14224,Mg2Ge0.98Sb0.02,450,-5.463067232381943e-05,9.42857321128617,0.06911247569704901,485195.5661712709
14223,Mg2ge0.98Bi0.02,450,-0.0002493105275821399,3.5297852129969067,0.9857508895296674,124400.38023483232
14166,Tl2GeTe3,450,0.0002287592703922453,0.27485851873407724,0.27194069658061604,3255.236183285377
14177,Ag0.8Cu0.2TlTe,450,0.00040755297008841714,0.3443850174760325,0.2381059231705177,883.8865181664424
14178,Ag0.7Cu0.3TlTe,450,0.0003515130712985078,0.3393224408047439,0.32554688032474033,1842.7577962821674
14179,Ag0.6Cu0.4TlTe,450,0.00030120144386830525,0.3678631707590619,0.3908201986147209,3453.929730677308
14175,Ag0.95Cu0.05TlTe,450,0.0004125479790804517,0.3712287763675684,0.17692417824585185,686.5258498052813
14148,Bi2Te2.85Se0.3,450,-0.0001667554239621151,1.2518130587144114,0.5475381730079408,55717.19531803236
14147,Bi2Te2.85Se0.3,450,-0.00015336389577510175,1.3041451435517368,0.4809867105094109,60139.68361196763
14146,Bi2Te2.85Se0.3,450,-0.00016036026457453032,1.3528656105828705,0.4721121365512789,60944.153081096316
14142,Bi2Te2.85Se0.3,450,-0.00017886427378473356,1.1001495900651779,0.6337976413798737,50288.76952446994
14143,Bi2Te2.85Se0.3,450,-0.0001778139683442525,0.7105816768325113,0.4401415601271135,22268.978938196564
14144,Bi2Te2.85Se0.3,450,-0.00017934175710764417,0.8757878733151703,0.5035549893487361,31948.31598912189
14145,Bi2Te2.85Se0.3,450,-0.00017649379620200255,1.1690135696808728,0.6041948728835198,51114.86304836568
14123,CuIn0.65Ga0.35Te2,450,0.00017244217468855607,40.631235127461274,0.00873809683140743,29630.390211231694
14204,Tl9Sb0.97Sn0.03Te6,450,0.00017183332176044585,0.5215254415364673,0.6726835671251388,26459.9093811956
14206,Tl9Sb0.9Sn0.1Te6,450,0.00014850860564130734,0.5921976689764414,0.5938739185959964,33777.14096341193
14205,Tl9Sb0.95Sn0.05Te6,450,0.00016735513855878104,0.5723920265101101,0.5546273481976275,24980.06838003048
14207,Tl9SbTe6,450,0.00017175901835351034,0.5430096308027477,0.6877902302299198,27849.76543459785
14208,Tl9Sb0.97Pb0.03Te6,450,0.00015438354029565868,0.624196236458431,0.5765085368750595,33960.219723155584
5232,La0.6Fe2Co2Sb12,450,0.00015694654307085476,1.9129119464164084,0.29345996066135943,46172.11784533611
14209,Tl9Sb0.95Pb0.05Te6,450,0.00014965413842282468,0.609337935476084,0.585326187428005,36340.65905651412
14210,Tl9Sb0.9Pb0.1Te6,450,0.00013292234904376335,0.6499797011378006,0.5191079305824476,42820.82305822517
5231,La0.9Fe3CoSb12,450,0.00012491326547094594,2.3204958563221547,0.334031984324222,102433.67999133584
5233,La0.3FeCo3Sb12,450,0.00010981896269059404,2.672946013309464,0.09785007129484592,39283.93546102333
5230,LaFe4Sb12,450,9.932705620992126e-05,3.157508160603925,0.2658065036811021,176821.47364119382
14203,Tl9SbTe6,450,0.00016822752023266103,0.5402960380541848,0.6916966712087121,28353.233596310194
14202,Tl9Bi0.85Pb0.15Te6,450,0.00014300327516056442,0.6642000802355924,0.6042165421927698,45511.676690147695
14201,Tl9Bi0.9Pb0.1Te6,450,0.00015359377197833867,0.6245330676282634,0.690705895205831,40375.20284626504
5311,CoSb3,450,0.0001525934271711066,4.997375252872343,0.3219693055887731,153557.93550486438
5310,CoSb3,450,0.00012547065423476841,5.054101692222008,0.1978513885998521,141151.74120799202
14192,CuIn0.98Cd0.02Te2,450,0.0002205087882032209,3.362273792550882,0.1428051511673762,19589.71034257289
14193,CuIn0.95Cd0.05Te2,450,0.00018256901277555307,3.036049884874076,0.12993881714771452,22181.71334006308
14194,CuIn0.9Cd0.1Te2,450,0.00015089331268015125,2.8171327360724048,0.14214595092521168,34894.128286042134
5309,CoSb3,450,0.00015148385257384074,4.755593783828517,0.4060085996305996,186979.8409453685
14195,Tl9BiTe6,450,0.0002642071136795408,0.36806009401842144,0.8450650837113463,9878.441414479264
14196,Tl9Bi0.95Sn0.05Te6,450,0.00020078577722159308,0.47183428522225795,0.7915955312209848,19883.79194259415
14197,Tl9Bi0.9Sn0.1Te6,450,0.00017133147059577607,0.5211809993331585,0.6915816841426738,25958.355305211124
14198,Tl9Bi0.85Sn0.15Te6,450,0.0001484146887948318,0.618437332329259,0.5684815843074195,34033.400003095325
14199,Tl9BiTe6,450,0.0002631504363750186,0.3766021929194575,0.8425364795582142,11090.59174772266
14200,Tl9Bi0.95Pb0.05Te6,450,0.00018242578096311165,0.4491003638339982,0.8051168569026703,25668.64692355905
14324,In4Se3,450,-0.0004173697293550313,0.7039762599865593,0.1378103500382658,1160.2200026719654
5871,Yb14Mn0.05Al0.95Sb11,450,0.00014717991425017968,0.5195095748891797,0.2482151197188574,12463.132014261546
13794,Yb0.044La0.377Te0.579,450,-0.00014031409657439589,0.9230435415129274,0.21654835034663428,23149.16270578981
13796,Yb0.086La0.34Te0.574,450,-0.0002173307751677636,0.6099134410418081,0.17244670522124728,5463.342019526761
5878,Yb14Mn1.05Sb11,450,0.00012008657615828623,0.868398195417306,0.14741196109647614,16905.34789319426
13751,Sn0.067Sb0.667Te0.266,450,4.402177656418709e-05,8.261864522638465,0.01674541246775174,164239.53983048798
13748,Cu2Se,450,8.811505148857926e-05,1.6744361432773849,0.23393843490457555,95331.60059694957
13795,Yb0.079La0.348Te0.574,450,-0.00016031438154778506,0.7699165235033242,0.2216191491629428,14679.881840472517
13816,CuInSe2,450,0.0001371150117289707,0.8421941725463001,0.2435774831935795,21064.95029825329
13820,Cu2.15Zn0.85GeSe3.9,450,6.419476004985861e-05,0.4439513564867903,0.1426722467425786,29132.2182749375
5861,CaZn2Sb2,450,0.00015348880501184055,2.078185958184697,0.18366435088032151,31501.736668471076
5862,Ca0.75Yb0.25Zn2Sb2,450,0.00013411481732038545,1.4459895668375862,0.20465630050098066,34896.24358418322
13826,PbSe,450,-0.0002669497709665064,1.1779858681452455,0.33391907634315515,12012.726289019185
13815,CuCr0.25In0.75Se2,450,0.00012152861865475678,1.0016737958120552,0.20453127578976749,24706.17670687165
13814,CuCr0.5In0.5Se2,450,0.00011478723134251829,1.051966359332857,0.1801031485734844,28617.732108268214
13813,CuCr0.75In0.25Se2,450,0.00010516832160521976,1.0118898134698766,0.19440185219707373,31875.625106898868
5865,YbZn2Sb2,450,6.473759991373978e-05,3.6430183732827066,0.12364345761123285,238449.7267801647
13812,CuCrSe2,450,0.00012755086167519852,0.8784316978614857,0.20418680091577032,22068.831188603734
5901,Co3FeSb12,450,8.171533209028653e-05,2.9925305200010435,0.09188753925896846,89767.98625223002
13669,Ag2.0006Se,450,-8.129624817176008e-05,2.2504461281763537,0.258679148864621,191796.49032621898
5900,Co3.4Fe0.6Sb12,450,8.430294803447648e-05,3.4536001056719177,0.08313725534211347,75445.28122874373
5899,Co3.2Fe0.8Sb12,450,8.922452828879559e-05,2.8963557034051006,0.13308952592766934,90356.16031918037
13680,Tl7.95Pb2.05Te6,450,0.00014625440230395958,0.5557521385818577,0.4077709602739118,26512.06773796821
13634,Cu2.95Sb0.96Sn0.04Se4,450,0.00013030234089583527,2.6062743659908905,0.2294169294160504,66460.12865776688
13706,GeSb6Te10,450,5.584716132863172e-05,1.840918024792613,0.13086816908592613,147168.56512506664
13687,Ag0.5Pb6Sn2Sb0.2Te10,450,0.00017234176735862362,1.0742290629211018,0.6391431628067001,50733.01207189466
5897,CoSb3,450,0.0002206408200053361,5.91830104915505,0.06488549565102614,14574.567370524699
13940,Cu2Zn0.7Fe0.3GeSe4,450,0.0002241750828560634,1.760569681857063,0.027608110323154352,2149.328061397829
13943,Cu2Zn0.6Fe0.4GeSe4,450,0.00024548263424694006,1.8080894464839468,0.02536309181953111,1691.0951400593024
13950,Cu2Zn0.5Fe0.5GeSe4,450,0.0001937525432604298,1.7582862671438175,0.04831331748532168,5028.623334596557
13951,Cu2Zn0.4Fe0.6GeSe4,450,0.00018514263926108865,1.7204027340791717,0.05592011550038264,6236.957277463433
13952,Cu2Zn0.3Fe0.7GeSe4,450,0.0001828241798612228,1.7287535202992108,0.058100836104562674,6677.834909120064
13953,Cu2Zn0.2Fe0.8GeSe4,450,0.00017001352664935835,1.748305374621446,0.048974846535616526,6582.803787454293
13954,Cu2Zn0.1Fe0.9GeSe4,450,0.00017980734431704594,1.8538400025605064,0.05482085405790678,6985.390338046809
13955,CuFeGeSe4,450,0.00022115717138916285,1.9458103119570067,0.05259633663167125,4649.876624437152
13938,Cu2Zn0.8Fe0.2GeSe4,450,0.00020107480893991856,1.7395250159250844,0.037358354760302866,3571.828328539445
13936,Cu2ZnGeSe4,450,0.0003066186725891181,1.7438689071461475,0.008729243674848659,359.81622192010786
13921,Cu0.75Ag0.25GaTe2,450,0.00036997598821161343,1.6836342148789605,0.15880832708036965,3548.128983903109
13937,Cu2Ze0.9Fe0.1GeSe4,450,0.00028581274666352586,1.8894857491745487,0.029313366200128175,1506.7236786686929
13977,Cu7PSe6,450,0.00016266511120542138,0.35795308784156515,0.09696060862230864,2914.8761275858556
13971,Cu2ZnGeSe4,450,0.0003074443873023518,1.7559278099198845,0.008847808465633648,365.25546110146
13972,Cu2ZnGeSe3S,450,0.00039797585937690114,1.5855112685471495,0.006979178573777876,155.25574208554025
13919,PbSeIn0.007,450,-8.189292996131048e-05,2.7793894839918303,0.2623073938531211,226678.10393493035
13918,PbSeIn0.005,450,-8.520064480343102e-05,2.795409304594996,0.28731306820827585,223897.8907031559