sampleid,composition,Temperature,Seebeck coefficient,Thermal conductivity,ZT,Electrical conductivity
13029,EuZn2Sb2,350,0.00013007512833957308,2.239936629679524,0.2633121602245161,108122.3023556267
13035,Mo2.78Ru0.22Sb7,350,2.786379107291645e-05,5.116321097254246,0.0251622347994465,473760.17327378603
13012,Hf3Ni2.9Co0.1Sb4,350,0.00015254349043087787,1.8274642577877007,0.2215372516007645,48165.74685450377
13010,Zr2HfNi2.9Co0.1Sb4,350,0.00014292148696705529,1.9364532983100489,0.2680559750193787,67016.66983652861
13009,Zr3Ni2.9Co0.1Sb4,350,0.0001776771356202661,2.3867041387476347,0.2785431833354437,55927.485191888605
12195,Bi0.5Sb1.5Te3,350,0.00022630985737344316,1.1178323967155974,0.8328691247210899,51272.55927777342
13007,Zr3Ni2.7Cu0.3Sb4,350,-0.00014426417168579656,4.040815113982247,0.1898626997240891,91634.94688090136
13011,ZrHf2Ni2.9Co0.1Sb4,350,0.0001426739928769797,1.6714350189600617,0.2344858309205995,53921.57493065856
12887,EuCd2Sb2,350,0.0002533974873268911,1.2121473687417077,0.1690036897545183,9638.971297972086
12886,EuZn1.4Cd0.6Sb2,350,0.00016024634191345633,1.6566358870528504,0.29321711042174464,54942.5778975788
12885,EuZn1.8Cd0.2Sb2,350,0.00013694028197388906,2.0694597958927585,0.29332667846858673,105458.09446808476
12884,EuZn2Sb2,350,0.00013028128337409366,2.2227548679415885,0.2832249128163541,104615.61115793306
16096,HT C/C composites,350,1.6545483123038034e-05,30.1200128177856,0.00012895799916388273,41905.05867369847
16095,MT C/C composites,350,1.3493165260789736e-05,13.794809000704145,9.671273838762676e-05,23565.9243765929
16094,LT C/C composites,350,9.243362549836914e-06,10.455462105471867,5.476557593846895e-05,20294.61686460856
12860,CdSb,350,0.00043310576221041277,0.8728035698065777,0.3126782279943981,3727.5759963126025
12861,Cd0.999Ag0.001Sb,350,0.0002328514282210629,0.9827738342380494,0.6015783545159253,30170.482769598068
12862,Cd0.997Ag0.003Sb,350,0.0002282633834513983,1.0371163357417612,0.6529000138734895,35830.14203578554
12863,Cd0.995Ag0.005Sb,350,0.00022330062215469916,1.0196210479211874,0.6969019207059007,39627.93828730436
12864,Cd0.99Ag0.01Sb,350,0.000195812170782516,0.9888560533303732,0.5956098151588025,42820.90303982005
12926,MgNiSb,350,2.7690641337829017e-06,25.143679736845765,0.0002692123748763388,2522259.5914126285
12920,Co0.85Ni0.15Sb2.88Sn0.12,350,-0.00014534662576113258,4.9991622253582415,0.11898930901610935,82097.64251864114
12919,Co0.87Ni0.13Sb2.88Sn0.12,350,-0.00017271186407707067,5.0956766824119715,0.11771542842589156,61072.79162051524
12918,Co0.88Ni0.12Sb2.88Sn0.12 ,350,-0.00017321385454324825,4.816593586545816,0.1113408220457639,52995.56154368716
16126,Ag0.9Pd0.1TlTe,350,0.0002393137308819521,0.4265017499092214,0.08718161296072569,1583.6157556929925
12922,Co0.81Ni0.19Sb2.88Sn0.12,350,-9.695882366889129e-05,5.0189249897053685,0.07560641666541007,100774.06139741822
16125,Ag0.95Pd0.05TlTe,350,0.0003718474127884882,0.5277447225806986,0.07150749942316187,870.7189157644844
12891,Ca5In0.98Zn0.02Sb6,350,0.00026124668605175097,0.9773612209430034,0.13982882868902966,5261.53182530944
12890,Ca5In2Sb6,350,0.000545208829784879,0.8801455786121053,0.10030904245573058,838.8327718758087
15488,MnSi1.73,350,0.0001421111069642198,2.6309877127146017,0.1406951504825098,55196.26998141658
13043,Ca5Al1.8Mn0.2Sb6,350,0.00014889841823985926,1.195868464817811,0.07991183229223059,14632.402878989593
16271,Ge3MnSb2Te7,350,0.00014217252348071,0.7442806481138021,0.18467637225568825,18704.88731628794
16245,Ru0.85Fe0.15)0.95Mn0.05Al2,350,9.533660101713932e-05,10.643884561242443,0.016782258977551166,56122.56348354949
16243,Ru0.85Fe0.15Al2,350,0.00011956568681947869,11.153693868137589,0.009695493586866638,19381.198755462814
13146,Cu2ZnSnSe4,350,0.0001223232170673711,2.778165773906476,0.028365790696905063,14293.709378898056
13145,Cu2Cd0.1Zn0.9SnSe4,350,0.0001462514457092518,2.4527924167127164,0.023481536444907008,6319.167501734029
16240,SnTe0.75Se0.25,350,6.602855117754418e-05,4.766738036946185,0.05841266750798094,185802.0406574516
16239,SnSe,350,0.00021694222966767623,1.2848266109220543,0.002250990842863146,184.10056570738197
16250,OsGa3,350,-0.0005253986834736519,2.9925296097408376,0.014887856024926156,461.13131070903364
16249,RuGa3,350,-8.281421236947586e-05,2.8364985825785043,0.00015397247528894332,181.94824324056302
16248,FeGa3,350,-0.0004165660453729365,3.183262540259257,0.012457525952931413,652.9327913910255
16238,SnTe,350,1.49327854423488e-05,9.580387380960676,0.005041082193596461,583860.104090743
16275,AgSn4SbTe6,350,9.392869259813452e-05,1.9434600183440915,0.2726281967030567,172123.06249693412
11938,LaPdBi,350,7.605322720793145e-05,4.511839477739391,0.08655096983108151,168314.80589350493
13189,Eu5In1.8Zn0.2Sb6,350,0.00014865407475718998,1.059214274786418,0.06946617578663498,10887.198839683246
13187,Eu5In1.95Zn0.05Sb6,350,0.00018500180085853304,1.0002747405811003,0.0831951639545874,7023.951634473287
11939,GdPdBi,350,9.196661928068808e-05,4.1133734438073235,0.08060740617221658,109413.11846649363
15240,As1.976Bi0.024Te3,350,0.00013648145301958908,1.048852228480758,0.3564942488640245,58165.37325822968
13186,Eu5In1.975Zn0.025Sb6,350,0.00022033730661264223,0.9036130745802432,0.10039498516362184,4604.684935557821
13185,Eu5In2Sb6,350,0.0002280855868129976,0.9232474844959376,0.029357045860781632,1441.7349303998894
11955,NbCoSn,350,-0.00014134392807591852,7.837679282344736,0.06307324924821664,77042.74124528424
11954,ZrNiSn,350,-0.00018760943529087904,5.390121109445635,0.08322062509035011,31868.242955901675
13144,Cu2Cd0.2Zn0.8SnSe4,350,0.00018516900373587825,2.210581219274592,0.029467929158831632,4984.084181900335
13143,Cu2Cd0.35Zn0.65SnSe4,350,0.0002104232045486924,2.2498416263595287,0.03842598954508605,5617.864378737641
13142,Cu2Cd0.4Zn0.6SnSe4,350,0.00017595880594155404,1.9630458958757813,0.04445781653034725,7665.773901415011
12043,Zr0.98La0.02NiSn0.98Sb0.02,350,-0.00010363870380577344,8.206197888114882,0.17819726612192474,338445.56996537675
12044,Zr0.98Ce0.02NiSn0.98Sb0.02,350,-8.902931481740391e-05,5.795659836647619,0.1140593213774671,225646.03915767523
12045,Zr0.98Ce0.02NiSn0.98Bi0.02,350,-0.0001809437270972948,5.87661155659876,0.05067105173420655,21649.95966622628
12047,Zr0.98La0.02NiSn0.98Bi0.02,350,-0.00017620749470051767,6.014069436709825,0.05591612512325747,25667.141333255342
12034,Hf0.25Zr0.25Ti0.5NiSn0.998Sb0.002 ,350,-0.00019859642694907093,2.2122893035385363,0.29668535383901545,51711.71563099428
13061,Cu1.7Bi4.6745Zn0.0255Se8,350,-0.00013761186622473248,0.5787279136593836,0.09435468732979534,9797.342169428464
13060,Cu1.7Bi4.6915Zn0.0085Se8,350,-0.00012135579777691303,0.6037171245732512,0.09658756592669128,9426.55767196939
13059,Cu1.6745In0.0255Bi4.7Se8,350,-7.991909975534395e-05,0.6266968634239127,0.07803047699262833,22278.49857547457
13058,Cu1.6915In0.0085Bi4.7Se8,350,-9.549331725452242e-05,0.6492564893050853,0.14030648777879795,23855.65169007075
13057,Cu1.6745Zn0.0255Bi4.7Se8,350,-9.74061924281578e-05,0.6551337255539854,0.1129250684144866,21045.704756712505
13056,Cu1.6915Zn0.0085Bi4.7Se8,350,-8.255213898580991e-05,0.5492296239476795,0.0900913275472032,23820.342908241593
13062,Cu1.7Bi4.6915In0.0085Se8,350,-0.00012804155140567138,0.5511304530660811,0.08430516219609674,7132.864651353171
13055,Cu1.7Bi4.7Se8,350,-0.00015971598774158066,0.5366865057655841,0.10924636774481288,6376.0482386515405
13063,Cu1.7Bi4.6745In0.0255Se8,350,-0.00012244793124582058,0.5299597589225181,0.08214355825014802,8611.650496603343
13065,Cu1.7Bi4.7Se7.84I0.16,350,-9.348810666337394e-05,0.4943922506335645,0.038337284464761416,5875.215094709771
13064,Cu1.7Bi4.7Se7.92I0.08,350,-9.88783226855004e-05,0.521213943853765,0.11557815046417795,17342.008665467452
16210,Tl9SnTe6,350,4.2955536221524544e-05,1.5575296986655849,0.05675196906344807,143763.47493303107
13123,CaAl1.9Zb0.1Sb6,350,0.00010375325267268859,1.3444517954662902,0.06422607860492546,25481.863785117188
13118,Ca5Ga2Sb6,350,0.00044332096489953243,1.1964816744483606,0.041142355310959784,653.3166183438393
13141,Cu2Cd0.45Zn0.55SnSe4,350,0.00020590398453480482,2.117348653528363,0.0388503640972207,5425.029971054358
13140,Cu2Cd0.3Zn0.7SnSe4,350,0.0001991028323324849,1.8757999732136408,0.018567307309458464,2316.3980248909625
13139,Cu2Cd0.5Zn0.5SnSe4,350,0.0002466032433617667,2.0926841142746886,0.027541020518460812,2607.4631704698345
13138,Cu2Cd0.7Zn0.3SnSe4,350,0.0002741874306813225,2.219698701680692,0.0190357357454585,1533.8053238762225
13128,Yb9Mn2.2Zn2Sb9,350,1.2405070421117458e-05,1.6429843814767036,0.005454482475814743,166387.414535332
16219,Tl7.8Sn2.2Te6,350,0.0001260798858449114,0.4974551553977928,0.1843974559354985,18103.803095208605
16218,Tl7.95Sn2.05Te6,350,9.238982203288553e-05,0.7761046368744902,0.16408230911854946,44485.39050589605
16217,Tl7.9Sn2.1Te6,350,8.891425195529599e-05,0.7269170007162097,0.16239320563563708,40075.32673401424
16215,Tl8Sn2Te6,350,6.372413648791703e-05,0.5641356047624448,0.10176410596141522,41646.94485470372
12671,TiNi(1+y)Sn. Here y is 0,350,-0.000216770370333725,5.562889684038501,0.09549856541596304,31824.67397186872
12660,NbCo(1+x)Sb here x is 0.2,350,-6.743296118717429e-05,5.722198100949394,0.06213924300465865,247998.9732980096
12661,NbCo(1+x)Sb here x is 0.3,350,-8.177294053545788e-05,5.034948667028048,0.06423791155429914,162318.38208001514
12639,WOx here x is 2.84.Matrial family tungsten oxide,350,-2.5243842289944706e-05,5.721529707830743,0.012671068778275776,341589.4236903455
12673,TiNi(1+y)Sn. Here y is 0.02,350,-0.00018954381177509874,4.855456457170101,0.0936261819175984,32784.07238372271
12675,TiNi(1+y)Sn. Here y is 0.25,350,-8.573546725495534e-05,5.257837286177789,0.0674121594420592,143777.86545358296
12417,Nb0.99Ti0.01CoSn,350,-0.00012276351486764918,5.915720697510398,0.02550482830697085,26038.688857885947
12418,Nb0.99Ti0.01CoSn0.98Sb0.02,350,-0.00012918086592668572,6.379955899469229,0.06830855582429762,73368.80582254559
12419,Nb0.99Ti0.01CoSn0.96Sb0.04,350,-0.00011311714301101348,6.884969208876804,0.06946145282977755,111603.0230146577
12420,Nb0.99Ti0.01CoSn0.94Sb0.06,350,-0.00010351581564063277,5.882531447296372,0.09431330531167896,148964.31867072775
12422,Nb0.99Ti0.01CoSn0.9Sb0.1,350,-7.908160294651933e-05,5.8796711556600805,0.09654519981063206,266462.8569203621
12421,Nb0.99Ti0.01CoSn0.92Sb0.08,350,-8.923394522241552e-05,6.559593089123022,0.08835159461039316,215406.5305827353
12691,"(TiNiSn + xTiC/yTiN (x, y = 0, 1, 10 at. %)) here x is 1 and y is 0",350,-0.00018727849520998248,5.484520576028876,0.08111684522975382,31859.93994147071
12689,"(TiNiSn + xTiC/yTiN (x, y = 0, 1, 10 at. %)) here x is 0 and y is 0",350,-0.00014828159899432167,6.8351011332423965,0.0319877412126174,25949.11201742768
12416,NbCoSn0.9Sb0.1,350,-8.246038529964193e-05,6.490339720097565,0.0818707265852834,247394.46318410104
12414,NbCoSn0.94Sb0.06,350,-8.766981197212755e-05,6.671965500538592,0.07938751709626139,195652.65415299378
12415,NbCoSn0.92Sb0.08,350,-8.016735362568793e-05,6.906639535065633,0.0677682977947176,207446.56357588182
12412,NbCoSn0.98Sb0.02,350,-0.00010143559816710667,7.31626577029034,0.06830855582429762,121994.6367531509
12413,NbCoSn0.96Sb0.04,350,-8.982069048937776e-05,7.407871075281987,0.055194763904902105,151462.39140815812
12433,Zr0.99Nb0.01NiSn,350,-0.00019060503081116912,8.412140432152768,0.11099052999476247,81008.08851569763
12434,Zr0.98Nb0.02NiSn,350,-0.00014536014777483269,8.857151768246856,0.1076317029116204,145161.47588752833
12426,TiCoSn0.05Sb0.95,350,0.00017626602154361271,9.95570707591038,0.05666610549618335,59738.14918349885
12429,Ti0.99Nb0.01NiSn ,350,-0.00019822861693626992,5.8115491880198,0.210906476433228,77975.16444957242
12430,Ti0.98Nb0.02NiSn,350,-0.00015578720790080018,6.319366532409887,0.1974930346634372,137898.12884296646
12431,Ti0.95Nb0.05NiSn,350,-0.00010441546783190468,6.3947499060667035,0.16258103515407962,260002.4345266388
15760,SnTe+2mol%PrTe,350,8.932682533478598e-05,26.97723523293694,0.003926515741698904,37929.13500179956
15909,Cu25As15Te54Se6,350,0.0005470926224406745,0.3393769925408872,0.01816581940383717,51.99346333385312
15851,(SnTe)2.88(In2Te3)0.04,350,9.350218013899644e-05,3.3376236563372927,0.22110015485285006,252010.6719769504
15853,(SnTe0.996I0.004)2.88(In2Te2.988I0.012)0.04,350,9.880388167368362e-05,2.9207371925995576,0.1887877114504348,179526.5979533841
15854,(SnTe0.994I0.006)2.88(In2Te2.922I0.018)0.04,350,0.00010236924001081856,2.742800941409019,0.18761471124426288,159675.09897593432
15910,Cu27.5As12.5Te54Se6,350,0.00048664694014293966,0.2887906842777763,0.02794789840564689,87.24337330694306
15855,(SnTe0.992I0.008)2.88(In2Te2.976I0.024)0.04,350,0.00010088996676054098,2.7852491964564066,0.16062912418790146,136645.0577636743
15852, (SnTe0.998I0.002)2.88(In2Te2.994I0.006)0.04,350,9.659217664311229e-05,3.0537521082639754,0.20683975379772784,206174.42303915488
15903,BaCu5.7Se0.6Te6.4,350,0.00011016801328466508,0.4950648161969792,0.022940423250493863,2980.415444430463
15856,(SnTe0.99I0.01)2.88(In2Te2.97I0.03)0.04,350,9.755832024915135e-05,2.773180818164985,0.12189511446319767,118821.16566001973
15911,Cu30As10Te54Se6,350,0.00043607899818326733,0.28629177428156993,0.04706381634104562,198.89156526259492
15900,AgPb18SbTe16Se4,350,-0.00018570094605886836,1.1319806227418403,0.5075362595598065,46045.33512680087
15898,AgPb18SbTe18Se2,350,-0.00017641594312090572,1.2002955497719483,0.5672734720241832,58844.03112417537
15883,In4Te3,350,0.00045816397509490135,0.6853712489822936,0.026273249353988108,221.7609235366461
15882,In4Se0.1Te2.9,350,0.0005194334855701076,0.8588179410160618,0.017550423603797424,156.96797657233066
15880,In4Se0.2Te2.8,350,0.0005189012902854682,0.6048056877611674,0.011595753556480615,75.4639189808383
15897,AgPb18SbTe19Se,350,-0.00020023332287759285,1.129886593042624,0.4271291566139948,31470.271791329826
15895,Ga12Sb2Te7.5Se7.5,350,0.00011596754194498689,1.1900942338460294,0.2251342117242599,60699.17552234447
15893,Ga12Sb2Te12Se3,350,0.00018405657794177174,1.02874909367103,0.3008472676721257,27073.644649364596
15829,TmCuTe2,350,8.044615714788651e-05,1.5017891990636532,0.1215694304695557,85395.06631945455
15944,BaCu5.9SeTe6,350,0.00019881917816925825,0.6308594875369347,0.2800625132154761,13277.363160078286
15946,BaCu5.9STe6,350,0.0002132386383048827,0.5694724623284015,0.21554437378366145,7643.222078407978
15761,SnTe+1mo3%PrTe,350,4.151284713044505e-05,19.762231367834264,0.0014135465340794618,46314.076094424025
15806,Ti0.33Zr0.33Hf0.33NiSn,350,-0.00026303100641914467,4.7109096857345465,0.10376725802141318,16508.202863052313
12790,InSb,350,-0.000280215902839961,14.655204759998913,0.09127274750932758,48672.024698202615
16087,Ag9TlTe5.0,350,0.0004681854354463381,0.2065500203190512,0.014817154058707815,42.615235030488684
12288,Zr0.7Ti0.3NiSn ,350,-0.0002318170482325628,6.786557826540247,0.07836680528382838,25892.721458135038
12289,Zr0.7Ti0.3NiSn,350,-0.0002428146873447148,5.82189335788612,0.14134296187789466,39876.81688176224
12292,Zr0.5Ti0.5NiSn,350,-0.00018318403834885656,4.599609820389385,0.12863013319304994,50613.146238958136
16089,Ag9TlTe5.1,350,0.000258366016487994,0.20445438312912206,0.24592838985562385,2551.6659005628853
16064,Cu2Te,350,9.808371161833954e-06,4.789822267965965,0.0039411173663284026,459607.4540169792
16050,AgPb18SbTe20,350,-0.0004988520815574142,0.8121425933157189,0.004722804895155426,44.03729868340196
16051,AgPb10SbTe12,350,-0.0005030946834305369,0.7964511334810893,0.005613906019986057,50.47272731584847
12826,In3.9Pb0.1Se2.95,350,-0.00016146588024297393,1.2215872820742395,0.02542879986577981,3897.082709964645
12824,In3.9Ga0.1Se2.95,350,-0.0003773780028510504,1.06960090165585,0.025637592505048882,596.6499499368306
12715,Cu1.94Al0.02Se,350,9.941717373403768e-05,2.050591206069971,0.1120106411764932,79511.2851780396
12375,Fe2VAl,350,-1.867560486683589e-05,15.362019283543495,0.0008374498588259624,117194.72229264125
12378,Fe2V0.94W0.06Al,350,-0.00011588087737722097,7.191353288039412,0.1103523821931536,167729.4179455468
12718,In4Se2.32Cl0.03,350,-0.00022394692935358927,1.1089437883459599,0.4500473089878373,30449.135476655567
12711,Cu2Ga0.025Sn0.975Se3,350,0.00011737011052461467,2.4557985635885764,0.052874320036509236,30725.472312843387
13630,Cu2.95SbSe4,350,0.00038479059117065467,2.404679035562897,0.10157989209768364,4495.293663828965
13628,Ag0.65Sb1.35Te2.26,350,6.201126685070084e-05,1.0064365518708558,0.1818263569749069,111841.00586626591
13631,Cu2.95Sb0.99Sn0.01Se4,350,0.0001813166736147175,2.608566423976473,0.13201471559810407,28670.898006135
13633,Cu2.95Sb0.97Sn0.03Se4,350,0.0001151793528478864,2.837763508667388,0.09668681635593952,61089.87321218105
13632,Cu2.95Sb0.98Sn0.02Se4,350,0.00012923809520454198,2.7555898890583705,0.10510107714276527,50162.52961691012
13634,Cu2.95Sb0.96Sn0.04Se4,350,0.00010410778866401688,3.1989801546944183,0.10297827245469954,83559.0841398436
14979,Tl8GeTe5,350,0.00017197730457502384,0.14168128896487056,0.2260500122291905,3466.7948864045866
13608,Ca5Al2Sb6 ,350,0.000397099856991932,1.1457036740448183,0.02178371034477993,514.2156885373248
14962,Cu0.08TiSe2,350,-5.808192037151891e-05,1.7744340600775417,0.09925019762189112,170675.8569045824
14964,Ag9TlTe5.0,350,0.00046814495978377013,0.20031333670133172,0.019679753902623928,42.68456797062082
14966,Ag9TlTe5.1,350,0.00025819343253233215,0.19900519116832285,0.2616172683342029,2535.779451223309
14968,Ag9TlTe5.3,350,0.0002763127054984226,0.2413688216642498,0.19152387817547248,1905.9944680300796
14969,Ag9TlTe5.5,350,0.0004002771029134936,0.20678694958374694,0.09525743947251963,377.6629158299272
13661,CuAgSe,350,-0.00010301960754840793,1.4796448414471035,0.4452985410246845,169010.59683066618
14967,Ag9TlTe5.2,350,0.0002619960397605221,0.2701704835134978,0.2381643883828111,2986.936194860408
14961,Cu0.06TiSe2,350,-7.394138703096446e-05,2.144298808058971,0.12577381951640465,126822.65954253913
11064,Al2CrCoFeNi + 5 wt.% Sc,350,-1.5111717899468454e-05,11.74147880646982,0.005703199630571929,742321.9403963902
14960,Cu0.04TiSe2,350,-7.550465051025013e-05,1.9481437491562463,0.0710043298337924,78029.9229040372
13664,CuAgSe0.85Te0.15,350,-0.00011668314258462593,0.8416005970344492,0.3729934657147052,63350.46845573798
13663,CuAgSe0.9Te0.1,350,-0.0001122432174614288,1.0098052416646863,0.4327928559248693,97977.57284337391
13662,CuAgSe0.95Te0.05,350,-0.00010737088087314195,1.2091791421950973,0.4302504019292104,126090.45734364279
13646,CuAg0.99Se,350,-8.040828202876836e-05,1.6338041144745143,0.1867811595378317,107942.13831484737
13643,CuAgSe,350,-0.00010489657380038007,1.4751418774833809,0.42484604505637424,167635.0683873001
11090,PbTe 2GPa ,350,-0.00027841748286635333,2.0224137665934663,0.23753149712174104,17706.395842539543
11091,PbTe 4GPa,350,-0.00018603566704604788,2.3693398427813985,0.3030474270611109,59275.80801006162
11092,EuCd2Sb2,350,0.00025072559483560664,1.2226770660187072,0.1693654435373969,10029.563776963123
11089,PbTe 0 GPa,350,0.0003260839606595371,2.2355235441280694,0.11784749349581095,7079.012496772519
15022,Ag3.4Mo9Se11,350,7.185129062292397e-05,1.3009259911172888,0.07230325530109424,58458.11101404335
15023,Ag3.8Mo9Se11,350,9.581531364647403e-05,0.8536957144422744,0.12698780427329734,35573.0756531386
15031,In4Se3,350,-0.0002341779998031117,0.8494437257076057,0.03364476322554205,1482.6818999247962
15032,In4Se2.85Te0.15,350,-0.00021320565880973336,0.7765335406406012,0.051018820749254866,2363.793121924755
15021,GeIn0.6Sb5.4Te10,350,9.074495713568244e-05,0.43911291570847377,0.2711873996761156,40843.570723617595
16537,Zn4.06Cd0.04Sb3,350,0.00012319250948657098,0.8093880077143359,0.3918688934660414,60544.84939781477
15045,(Cu2Se)0.99(CuGaSe2)0.01,350,9.387438137796369e-05,1.4114090489971225,0.15131289125448766,78826.26235166438
16536,Zn4.01Cd0.04Sb3,350,0.00012976572289384637,0.7797576835211221,0.4204933296268452,56292.81680934903
16534,Zn3.91Cd0.04Sb3,350,0.00016515706971421566,0.7090424934780544,0.5409430378915165,40143.35278702765