sampleid,composition,Temperature,Seebeck coefficient,Thermal conductivity,ZT,Electrical conductivity
15854,(SnTe0.994I0.006)2.88(In2Te2.922I0.018)0.04,550,0.00012464972732459053,2.485959274383124,0.5063451984232314,136235.91939997315
15855,(SnTe0.992I0.008)2.88(In2Te2.976I0.024)0.04,550,0.00012281598794640112,2.5068501829927032,0.4317349686625974,117536.265719687
14455,SnTe ,550,5.8918910729046194e-05,5.817715723248848,0.15976983262775313,411090.2084001254
15856,(SnTe0.99I0.01)2.88(In2Te2.97I0.03)0.04,550,0.00011899156916307676,2.47214353353446,0.36861664436023145,103239.5508965677
15852, (SnTe0.998I0.002)2.88(In2Te2.994I0.006)0.04,550,0.00011485257445351604,2.8569789032369752,0.4456434654026055,171176.17680397007
14456,In0.005Sn0.995Te ,550,8.391108747455107e-05,4.375927726126415,0.2698070037630816,281926.50640125986
15869,Cr1.94Ge2Te6,550,0.00033052015917914334,1.518725840008271,0.14654150795620166,4292.3300529599765
14457,In0.015Sn0.985Te ,550,0.0001090173980281924,3.42666447667496,0.3785344712308618,190223.41607275003
15893,Ga12Sb2Te12Se3,550,0.00022134359781761405,1.2649456003452162,0.8139610830790912,36087.08317836215
14460,In0.005Sn0.995Te,550,8.297026065891783e-05,3.5471357993420223,0.3058370809130913,255196.92133743895
15894,Tl2ZrTe3,550,8.088032773455592e-05,0.3871176079103401,0.07176784677498356,7721.903103483539
15931,Ni0.05Mo3Sb5.4Te1.6/0.020SiC,550,0.00010282514435496416,3.675153725615648,0.19198133344276114,102589.06003480259
15932,Ni0.05Mo3Sb5.4Te1.6/0.020Sic,550,0.00010327317722660518,2.5804369919592123,0.16299215004300172,62662.651162631366
15933, SiC,550,0.00010590243263770809,2.5350169016193167,0.1380589844759363,53203.9208115712
15934,Ni0.05Mo3Sb5.4Te1.6,550,0.00010643467846604721,4.176216683781444,0.2272501017436941,136562.0394896918
15935, Ni0.05Mo3Sb5.4Te1.6/0.0100Al2O3,550,9.551446365238387e-05,3.8122381297834433,0.19123658233243096,122189.43311936043
15936,Al2O3,550,9.826389523968149e-05,3.7707752003446,0.20490491794443436,123610.06870236868
15937,Al2O3,550,9.883162142230473e-05,3.7658464962168794,0.1919069512794877,119088.7212898327
14464,La2.5Ca0.5Te4,550,-0.0001340469332616781,1.0657687942801668,0.2574404479800108,23476.629659146132
15944,BaCu5.9SeTe6,550,0.0002166614128990087,0.4890538946922247,0.6531434367506846,12470.296798340996
15930,Ni0.05Mo3Sb5.4Te1.6,550,0.0001024532887426614,4.548054320834722,0.15663172808182002,104064.28013456246
15895,Ga12Sb2Te7.5Se7.5,550,0.00015654309917158594,1.3485595609497871,0.5993357529387864,59122.574467674014
1915,Al5.2Re4.7Si4.8,550,0.00012846188943381158,8.154777484433652,0.10772455062100153,96786.66063983226
15897,AgPb18SbTe19Se,550,-0.00023441751793557076,0.9618086203330728,0.5812823957119279,20168.877965606956
14461,In0.015Sn0.985Te,550,0.00011994712670868179,3.015334118309392,0.3545653097874447,121972.0897100822
15900,AgPb18SbTe16Se4,550,-0.000222841860453916,0.935031741992572,0.6789498616951726,26877.795848315258
1914,Al5.4Re4.7Si4.6,550,5.73425028233686e-05,11.131358608335596,0.061372770226738524,377753.00015875883
1924,CrSi2,550,0.00019500763747215796,9.306551278768069,0.0827602179773959,36825.14531937095
1913,Al5.5Re4.7Si4.5,550,5.315338604887008e-05,11.291966935822494,0.055026981164159036,399871.7510188985
1912,Al5.7Re4.7Si4.3,550,3.0269930748501577e-06,12.042281300257823,0.0002488549143923355,594660.9840684012
14462,In0.03Sn0.97Te,550,0.00010378444847283456,2.608204878495997,0.3431072674610744,136000.0475545806
1911,Al6Re4.7Si4,550,-1.7282343402237068e-05,10.159205483636077,0.010212817075371678,631593.0575049889
1904,CrSi2,550,0.0001288605345042083,8.032956627572275,0.1118044852565133,98340.42982987
15903,BaCu5.7Se0.6Te6.4,550,0.00014071423153835574,0.4538125154197771,0.13516158189618604,6278.690045084786
1925,CrSi1.98,550,0.00018751309136625207,8.454799203660876,0.08966090369282434,39199.50046897129
10655,LaCo0.80Ni0.20O3,550,4.324243629175349e-05,2.7527805560458365,0.009954731530336686,30907.688100913998
15841,(SnTe)2.7(In2Te3)0.1,550,9.81573349811413e-05,3.1391896219778896,0.3382959298014334,183590.7631207669
15780,0.05 wt% PbI2+0.3 at% In,550,0.0002436092757901797,1.2452038561519811,0.7447340658442967,28766.639254255795
14123,CuIn0.65Ga0.35Te2,550,0.00020035879969406851,37.47541507064052,0.0131982071532717,24916.50743518935
15781,0.08 wt% PbI2+0.3 at% In,550,0.00022783912047801268,1.2501457782109613,0.8362300863456527,38280.412132676785
14122, CuIn0.75Ga0.25Te2 ,550,0.00023831605786323067,39.799991578980425,0.011783589613319288,15180.314863938504
9614,Mg2Si0.4Sn0.6,550,-0.00017638447521777802,3.190561729141992,0.7009272201812984,123237.69854654356
15782,0.10 wt% PbI2+0.3 at% In,550,0.00017712655583138894,1.4330291171475766,0.8638638314594267,81774.3246013191
14121,CuInTe2 ,550,0.00023388613609913653,43.280657172672825,0.010105805046937838,15720.562387330332
9612,Mg2Si0.4Sn0.6,550,-0.00018943259482207225,2.715161219798425,0.7052753825764643,91588.42979691588
15776,Pb0.999TeIn0.001?,550,0.00029787795961199907,1.324653831117636,0.5478842042333603,15459.573757161255
15778,Pb0.995TeIn0.005?,550,0.00025123410547491545,1.4136527641203418,0.5868907221128087,24500.429579336535
5160,Co4Sb11.625Te0.375,550,-0.00017800025865783014,2.130975034801384,0.5675406619886539,70541.11119706876
9613,Mg2Si0.4Sn0.6,550,-0.0001905241002550953,2.6751511245144286,0.6872086581403551,89811.48210353877
15777,Pb0.997TeIn0.003?,550,0.00024733447491685024,1.4633342441570607,0.6640248216913447,29411.760563682983
1928,CrSi1.92,550,0.000152778966971673,8.95232765514868,0.07544190156578061,52608.84506076458
10544,Ca0.84Dy0.08Yb0.08MnO3,550,-7.591674855483571e-05,2.1503325884132622,0.0501044816693732,34532.441321263366
1927,CrSi1.94,550,0.00015968362425532724,8.4583059229439,0.07876054432873097,47501.644627533606
1926,CrSi1.96,550,0.00018299866671624498,8.25972785441607,0.08801735418502846,39470.76166415573
15829,TmCuTe2,550,0.00012448488507158767,1.14739195027254,0.3957831340572783,54458.3608784042
10543,Ca0.90Dy0.05Yb0.05MnO3,550,-9.877238372144132e-05,2.0927130243678542,0.08020378783694243,30175.137056262687
15837,(SnTe)2.94(In2Te3)0.02,550,0.00012037910228893711,3.526601510464225,0.5109506223369671,187236.76803526637
15838,(SnTe)2.88(In2Te3)0.04,550,0.00011051287486819018,3.0014566345533686,0.5472894532905191,202066.05128743305
15839,(SnTe)2.82(In2Te3)0.06,550,0.0001092921701192742,3.1572336807922547,0.4315529787289468,178642.06030176653
15840,(SnTe)2.76(In2Te3)0.08,550,0.00010437306689319568,3.027994292293507,0.36521407528635774,165465.4313151692
10542,Ca0.96Dy0.02Yb0.02MnO3,550,-0.00014899718058861396,1.8911115015709643,0.12313935697541804,17690.6082043883
10545,Ca0.8Dy0.10Yb0.10MnO3,550,-6.389905876718919e-05,2.5898957296669334,0.03370579718752137,36481.838049900965
1929,CrSi1.9,550,0.0001419835267999704,9.223218440845363,0.07433906828149657,61838.79230962994
9615,Mg2Si0.4Sn0.6,550,-0.00017261152289102736,3.077793542103578,0.7346062191499517,132695.37480733413
1931,(CoSi)0.975(SiO2)0.025,550,-9.223893746822782e-05,12.440683831263073,0.16020298298698946,470697.62839552225
15945,BaCu5.9SeTe6,550,0.00022781763876452807,0.5517598689189767,0.6732980149250247,13461.406929273056
11089,PbTe 0 GPa,550,4.728531110876125e-05,1.636706940285916,0.0022547872483864783,3000.967575376883
11090,PbTe 2GPa ,550,-0.00032899340452769663,1.4100736437711443,0.3292846597418415,7799.66987566743
11091,PbTe 4GPa,550,-0.0002506342806031058,1.7525625511751306,0.4216197764205415,21387.04920047205
11092,EuCd2Sb2,550,0.00029439035006507085,0.8359270618868146,0.4789593658783477,8161.3866862567675
14106,Tl8.95La1.05Te6,550,0.0002648097174195287,0.28366828490639995,0.4507876331029847,3547.6247608120593
11093,CaCd2Sb2,550,0.0002197794619953728,0.7190591245840684,0.024431939075911974,715.1311349796819
14105,Tl9LaTe6,550,0.00021232571151931783,0.3390216694928859,0.5084196726585629,7098.55756048981
14104,Tl9.0.5La0.95Te6,550,0.0001571348965983939,0.48510587834521,0.3943384679339784,14357.030107258448
1870,Al27.5Mn27.5Ta2.5Fe3Si39.5,550,-9.336968803761827e-05,4.174093134951839,0.08037423046628295,69968.80520429017
1869,Al27.5Mn29W3Si39.5,550,-0.00012697686782304408,3.5402808659511464,0.14657573402263374,58517.78596284897
1868,Al27.5Mn31Cr2Si39.5,550,-0.00011629638050018268,5.338273672417486,0.08371623071391987,60077.99280977041
14103,Tl9.1La0.9Te6 ,550,0.00013697107137598395,0.5970709145955301,0.34316923746527594,19387.59779787388
16063,CuTl9Te5,550,0.00017380686094683253,0.4771984550204699,0.290949538554774,7284.491043970182
16064,Cu2Te,550,2.2754794683825627e-05,2.983941613518085,0.0218148713910852,198010.30368697
16065,Tl2Te,550,0.00018194120985689808,0.3109024200756282,0.13991460880552306,2615.798484746304
1838,MnGe0.02625Si1.72375,550,0.00016941182877396732,2.2091985745191463,0.3779478895863729,52895.23223434568
1839,MnGe0.035Si1.715,550,0.00016376357252882018,2.147871400684627,0.3773487559459992,54948.254421063066
16060,Ag1.1Pb16Sb0.8Te23,550,0.0003199747600723525,0.9671772425181636,0.2252696244588775,3530.562925106922
1881,CrSi2,550,0.0001411694956540855,4.6267184622830015,0.1923210760743719,81181.21330108627
15948,Cu0.88Ag0.1InTe2,550,0.0002543429331591178,1.6254785996913292,0.339285926931119,12839.836039761936
15949,Cu0.75Ag0.2InTe2,550,0.00027956279937744295,1.1006146642733932,0.3788392842186819,8197.941159985805
14465,La2.2Ca0.8Te4,550,-0.00012416473877625278,1.1067462070898657,0.21407357233379287,27941.637291713927
10527,Ni0.91Li0.09O,550,6.444490119233856e-05,2.8948676239192337,0.013294818659159876,14711.482446557085
15951,Cu0.68Ag0.3InTe2,550,0.00029505394925056746,0.9847537842830524,0.35577672231780344,6106.762009205636
10526,Ni0.94Li0.06O,550,0.00012861920448378842,3.1101722059724617,0.02179564143732653,6819.794565530503
14466,La1.9Ca1.1Te4,550,-9.52300475654213e-05,1.123640483309633,0.2520927969247032,48709.18927662692
10525,Ni0.97Li0.03O,550,0.00013723954279860255,3.985238804722405,0.003783318507958487,1387.657314040434
15946,BaCu5.9STe6,550,0.00020205910111655844,0.36664850258365994,0.4638306530471567,7749.95629952018
14470,CuGa0.99Zn0.01Te2,550,0.00015268909913962767,4.017589847354317,0.09158403961624292,30390.999045331188
10980,ZrCoSn0.05Sb0.95,550,0.00020066416810920297,8.425340939639039,0.1137984687079114,40835.568280848034
14293,Cu3Sb0.97Al0.03Se4,550,0.0002282278440972472,1.1947397834213678,0.4422757772277521,19422.738383987737
14292,Cu3Sb0.98Al0.02Se4,550,0.0002960711700280576,1.2009359569453522,0.2845058504758379,6984.728011645997
14291,Cu3Sb0.99Al0.01Se4,550,0.0003108958891684569,1.1372417953889842,0.2945360741751988,6059.168822151604
14290,Cu3SbSe4,550,0.00030440970372463543,1.0923763174658347,0.2007805846441229,4136.520320767646
10981,ZrCoSn0.1b0.9,550,0.00021117172383750804,7.646117901443604,0.2046801817547606,58400.81203893235
9606,Mg2Si0.6Sn0.4,550,-0.0001540211637572879,2.9881855653700464,0.5847129555624851,120538.8857875363
14287,(BiSe)1.09TaSe2/TaSe2,550,-1.6311221675416572e-05,3.07351414936166,0.00744721746552558,156420.46880298387
14286, (BiSe)1.09TaSe2/TaSe2,550,-9.105804958863612e-06,4.5049245311224135,0.0031611717189973442,312274.2908717201
14367,Ag2Te,550,-0.00013362761269981727,0.4981226521427709,0.5748087652408982,23336.868877877016
14362,(PbTe)0.15(Ag2Te)0.85,550,-0.00017443458058834948,0.5029356995173798,0.7419286683458883,21199.700700641577
9604,Mg2Si0.6Sn0.4,550,-0.0001608638640260955,3.542313765282908,0.5164269619889377,118168.26995966547
14296,Cu2-xSe,550,0.00011495602674691721,0.5425838012694253,0.5726193337720084,35673.515351491675
9605,Mg2Si0.6Sn0.4,550,-0.00016439505988406254,4.088865030887009,0.4627639404568564,119886.71413092932
14285,Cu0.9In0.9Mn0.2Se2,550,0.0005585214382216923,1.64890266883401,0.012795088321247086,138.2984663768613
14284,CuIn0.9Mn0.1Se2,550,0.00048695501943367295,1.8119570651131418,0.014158365434219831,223.0940115620911
10982,ZrCoSn0.15Sb0.85,550,0.000174489175886658,7.355475790650929,0.20868161539470104,82685.0931258147
14267,Cu2.1Zn0.9SnSe4,550,9.81860218689554e-05,2.1556264211958283,0.1548917563181696,57344.53810176234
9607,Mg2Si0.6Sn0.4,550,-0.00015891211154843917,3.161134010762144,0.5555481432861744,121168.75530786526
14268,Cu2.1Zn0.9Sn0.95In0.05Se4,550,0.00011334639146902031,2.3132044148665316,0.14030873019132345,40306.98084094366
14283,CuIn0.95Mn0.05Se2,550,0.00043254642144346716,1.7284293747572457,0.01582438399138552,318.0601840267738
14270,Cu2.1Zn0.9Sn0.9In0.1Se4,550,9.6664258203512e-05,2.3102770084595288,0.12383011969820268,48332.30660545531
14269,Cu2.1Zn0.9Sn0.925In0.075Se4,550,9.011984468606764e-05,2.3241922164548856,0.1381120592085675,62904.485995205476
14339,Yb0.40Co4Sb12,550,-0.00013536571972286936,3.5444696621859433,0.7122975591681305,240399.1146617272
14338,Yb0.36Co4Sb12,550,-0.00013535477821508717,3.5837090345323963,0.7060781275604104,240225.0478508078
10970,NbCoSn0.92Sb0.08,550,-0.00010935121858846416,6.559661439368239,0.14293502859344565,134216.93567400012
14337,Yb0.33Co4Sb12,550,-0.00013979713120259706,3.4297838439054615,0.744383904007885,227781.1127589557
2307,Ba8Ga16.6Ge29.8,550,0.00010510409856253409,1.59021373550475,0.2748271443955321,74314.99063552183
14336,Yb0.30Co4Sb12,550,-0.00014992216770120118,3.425543504784723,0.805180057996107,214421.53076338628
14335,Yb0.33Co4Sb12.2,550,-0.0001659793383399998,3.346647984552297,0.7908505453599131,168809.48144264074
10971,NbCoSn0.9Sb0.1,550,-0.0001107553243496498,6.08876184579278,0.17522686842505186,148667.46895444446
14348,Cu2HgSnSe0.8Te3.2 ,550,9.699191123945364e-05,1.4401042887600637,0.21775404998598905,59350.251191004325
14347,Cu2HgSnTe4,550,6.101857144272364e-05,2.060208456652329,0.121143537190831,132921.8609175997
10968,NbCoSn0.96Sb0.04,550,-0.00011611595912003,7.2034884735100375,0.10613108902977604,99460.17836809077
10967,NbCoSn0.98Sb0.02,550,-0.00012527978257671223,6.806524482870442,0.1192231806684322,83882.47708503174
10972,Nb0.99Ti0.01CoSn,550,-0.00014312112638101618,5.401233158204226,0.05658151540573567,24023.298411340373
10969,NbCoSn0.94Sb0.06,550,-0.00011758840929745984,6.35616999057859,0.15856254558771596,129185.05689327349
10966,NbCoSn,550,-0.00010941599415425784,6.382701063420153,0.046883653689499885,38089.23655984288
14321,In4Se3,550,-0.0004121393697719335,0.5903696676193462,0.3540591746513437,2447.6001837660706
10976,Nb0.99Ti0.01CoSn0.92Sb0.08,550,-0.00011916690949997727,6.1901477840259025,0.1738511494252874,129606.61576728214
2305,Ba8Ga16.4Ge27.9,550,0.0001700370633884588,0.9526103765102718,0.4928572353453262,30528.25523891536
14360,(PbTe)0.1(Ag2Te)0.9,550,-0.00016060024209522408,0.5122512440557467,0.6824346165215519,24002.55683522665
10977,Nb0.99Ti0.01CoSn0.9Sb0.1,550,-0.00011256975598615493,6.040225403940688,0.1824781015958999,168264.4354600661
14315,PbSe,550,-0.00022764016922773798,0.9477866767984108,0.17754138224010052,5971.348275276487
14314,PbSe,550,-0.00017176384903876514,0.9002773854151631,0.08103943989147694,4489.944602323666
14313,PbSe,550,0.0002455639983913889,0.8106591883993863,0.06617959457451306,1584.2869407465744
14312,PbSe,550,-0.00020934284954210325,0.8066039687946116,0.052181403820140346,1694.5233971706095
14361,(PbTe)0.1(Ag1.9996Te)0.9,550,-0.00017144906604201236,0.3931776116573773,0.927508698394368,21740.331709714323
14322,In4Se3,550,-0.0003483798502627032,0.6637664771962437,0.33348928801827826,3091.403455839254
14323,In4Se3,550,-0.00037873305502491607,0.6362447176365722,0.35484189490338425,2954.5981747642877
10973,Nb0.99Ti0.01CoSn0.98Sb0.02,550,-0.0001549078245105771,5.925577919776771,0.1229849074540554,51372.83709682436
2306,Ba8Ga16.6Ge28.7,550,0.00015182007864184582,1.4460314279361517,0.4331133075126417,48321.124960846035
14330,Cu2.1Zn0.9SnSe4,550,0.00019628415975124917,0.6995185572887215,0.3941852147697519,11426.646459923204
14329,Cu2.05Zn0.95SnSe4,550,0.00020315549996727185,0.6924243903522649,0.3280512581139172,8961.803225856103
10974,Nb0.99Ti0.01CoSn0.96Sb0.04,550,-0.00014276626512089172,6.3401652873109695,0.13343172415554094,73733.51166805899
14327,In4Se3,550,-0.0003709819660185945,0.5989264439914256,0.3960375532987619,3178.567081502989
14326,In4Se3,550,-0.00039867787904752943,0.5799570180788164,0.40102748325644655,2849.577116516239
14325,In4Se3,550,-0.00037618103769401513,0.6026259736227106,0.4444046918965531,3396.464219473097
14324,In4Se3,550,-0.00037498624639464867,0.6373781807349868,0.3537882122143309,2951.99357192745
10975,Nb0.99Ti0.01CoSn0.94Sb0.06,550,-0.0001318222375915779,5.46758184028888,0.1641777737468338,88030.2164676856
14358,(PbTe)0.05(Ag2Te)0.95,550,-0.00015617010192221347,0.4544517767690641,0.7886612286336596,25464.513494661234
14328,Cu2ZnSnSe4,550,0.00028054978973400616,0.6806459034856682,0.22026608853926555,2869.411324337277
9359,Mg2Si,550,-0.0002957143548888437,4.175525094670432,0.03986349590282502,2998.826854648457
5311,CoSb3,550,0.00016356882179409114,4.8278404618539765,0.4140429391695421,135842.15191346983
14189,MnTe0.95S0.05,550,0.0004982828593682463,0.8469951321038232,0.17382161304310262,1245.3784725242672
11050,9.104 × 10−3 mol % PbI2-doped PbTe,550,-0.00022333345853288287,1.437527612020392,0.83589498280663,38099.489027718635
14190,MnTe0.9S0.1,550,0.0004365185191190238,0.8207100054321608,0.1927874759770769,1621.3853191700416
5310,CoSb3,550,0.00014043101442174076,4.800053300049712,0.2829008118352622,125196.3011234476
5233,La0.3FeCo3Sb12,550,0.0001251648075534339,2.659096745096233,0.14241783163712524,37656.46038224481
2054,Fe0.92Mn0.08Si2.1,550,0.00028382451000173286,5.846849888933015,0.0279256874883496,3685.2192797082566
9356,Mg2Si0.9Sb0.1,550,-0.00013390586844417638,2.551725269696884,0.2325837148156712,60792.73922959378
2053,Fe0.92Mn0.08Si2.0,550,0.0002816159124612791,6.291248266819443,0.03368889321065223,4858.995493929104
5309,CoSb3,550,0.00016670454385868584,4.665112866477438,0.5330673381491305,162699.6670899487
14194,CuIn0.9Cd0.1Te2,550,0.00017021168960752446,2.019582963164102,0.216031679694698,27731.994479758243
14193,CuIn0.95Cd0.05Te2,550,0.0002000058797137577,2.0833323542595057,0.19604261573576015,18978.368652339967
14192,CuIn0.98Cd0.02Te2,550,0.00023324683673397643,2.210393443899066,0.2184728775926976,16711.75505144806
14191,CuInTe2,550,0.0002791541288139023,2.279019214505269,0.16668241115008486,8959.235851328453
2052,Fe0.92Mn0.08Si1.9,550,0.00022089177372374184,6.223292560750778,0.028792448131295726,6676.933279929435
2055,Fe0.92Mn0.08Si2.3,550,0.0002503785606800634,8.626321515166822,0.017616641421684242,4407.494600208828
9609,Mg2Si0.6Sn0.4,550,-0.00013063165975207933,4.452012892724568,0.3257397517935113,154513.9145229575
1932,(CoSi)0.95(SiO2)0.05,550,-8.755256265855028e-05,9.498859406177418,0.10985828751725643,284686.6353459016
11066,Cross Reference for comparison,550,-1.7177758132174286e-05,12.016299422443552,0.008319633905081008,623560.1715714565
5161,Sn0.25Co4Sb11.625Te0.375,550,-0.00020074358780427544,4.044617338967054,0.4718634013481466,84233.95868671287
15467,MgFe2O4,550,-0.00013911247121328716,4.297681937647817,0.0014330943031009812,476.5367811476902
9611,Mg2Si0.4Sn0.6,550,-0.00020722143632891666,2.8986425905991613,0.7504775787214498,87585.63382996125
11065,Al2CrCoFeNi + 0.3 wt.% Sc,550,-1.7952317511933934e-05,12.86610835954515,0.009569053548299636,709072.2178800098
11064,Al2CrCoFeNi + 5 wt.% Sc,550,-1.569216147157926e-05,13.46118626651096,0.0073354071757609435,720220.7536966644
9608,Mg2Si0.6Sn0.4,550,-0.00015519985802522763,2.9887007182374288,0.5734323796251868,120315.22714270801
1930,CoSi,550,-8.616185067233236e-05,13.470365995624784,0.13257376789519335,460295.59816583904
5232,La0.6Fe2Co2Sb12,550,0.00016725997134519097,2.002767736655989,0.3672072435342315,44831.26093433213
14243,RhSn1.5Te1.5,550,0.00012861325008345454,3.3869564877325824,0.2007792542882737,65954.33800079676
11014,Fe2.2V0.8Si,550,-4.853164201816871e-05,10.463554671330566,0.04164615546963155,358217.27586266946
15488,MnSi1.73,550,0.00017289173269883302,2.529706689332686,0.28629924544967417,44118.56256195494
2295,Ba24Ag4Ge96,550,-4.607329405577688e-05,2.3191967671769,0.0828609205825478,159622.92881205614