sampleid,composition,Temperature,Seebeck coefficient,Thermal conductivity,ZT,Electrical conductivity
10145,MnSi1.75,400,0.00014351824035080006,3.7670382485308567,0.07587762970058083,34692.81916469362
310,Pb0.96Ca0.03Na0.01Se1,400,5.221779888642535e-05,2.697215984196096,0.07055082639628263,188237.02782558388
338,Sn1Mn0.07Te1,400,7.115672652907946e-05,3.5940222493313896,0.07891509129335983,153802.35447602227
10123,MnSi1.74,400,0.00012276213110762243,3.0312097428572424,0.10861070025214324,54613.47014803914
10103,MnSi1.72,400,0.0001461559775597608,1.6275110248286473,0.16764364911983626,31931.394794525055
12417,Nb0.99Ti0.01CoSn,400,-0.00012798540272152142,5.767839932527134,0.03317075373612384,26365.10960623901
6531,Ti1.031S2,400,-4.574454777947958e-05,2.395761657824122,0.047925710413443484,142637.6442467279
12529,Ti9Cu2Ru18B8,400,3.106201716407734e-05,8.253605209255758,0.02051161674059189,450459.62714362383
10159,MnSl1.719136Ge0.013864,400,0.0001431153985438768,2.115804103448252,0.13338140393018075,34445.93831024034
491,Fe0.98Mn0.02Si2,400,9.071395918067024e-05,6.903908678398437,0.0027229302522532987,5711.146752231191
12528,Ti9Ni2Ru18B8,400,2.791434653056432e-05,7.136171280717763,0.015234018581043016,328353.4571351907
12527,Ti9Co2Ru18B8,400,2.560916206295383e-05,5.908510678191672,0.0161288722895688,311323.44192780147
12526,Ti9Fe2Ru18B8,400,2.73578370853456e-05,7.032512090164207,0.012543437069731073,289911.7865693705
490,Fe0.98Mn0.02Si2,400,9.95842204555182e-05,6.579878735687353,0.003498318980893568,5802.78191446386
17053,Ag0.4Pb22.5SbTe20,400,-0.0002427161416898395,1.0339986287927398,0.37518860927342224,13741.211799347131
10158,MnSi1.729534Ge0.003466,400,0.00014560610036310888,2.1516898168063694,0.11916413336961765,30234.72972168497
12525,Ti9Mn2Ru18B8,400,3.407390893483076e-05,6.691760738897992,0.032243150580525695,385352.597898034
17054,Ag0.6Pb22.5SbTe20,400,-0.0002325558631835061,1.0896825289837055,0.3513081087513923,15029.12821434349
17055,Ag0.8Pb22.5SbTe20,400,-0.00023262110550719794,1.4858845073805065,0.2595391176345142,15398.155966135886
12524,Ti9Cr2Ru18B8,400,2.8289562754485992e-05,6.775556738810347,0.01515875489093281,298371.4009887872
17057,(GeTe)90(Ag0.6Sb1.4Te1.8)10,400,0.00012856946227863658,2.0216588969806253,0.3338650167866465,103556.72445729688
10160,MnSi1.705272Ge0.027728,400,0.00014575126992121012,2.317260207107389,0.14011799201882072,38210.61455088788
496,Fe0.98Co0.02Si2-Sic-2mass%Cu,400,-0.000253113887087034,4.8970444520250025,0.025528759591800832,4878.337261230129
495,Fe0.98Co0.02Si2-SiC-Cu2mass%,400,-0.00025046893693697164,4.908101904576006,0.02107897702957614,4122.829410367138
494,Fe0.98Co0.02Si2-SiC,400,-0.00042588541252453567,4.403425889268541,0.05173172168375344,3139.8008514016606
493,Fe0.98Co0.02Si2,400,-0.00017661310770089199,5.276174206961798,0.009220387184099746,3899.082537369354
10161,MnSi1.73Cr0.01,400,0.00015361696166002074,2.3839291814997354,0.12211076725036063,30839.617034083185
10098,Mn0.65r0.2Ru0.15Si1.74,400,0.00012069172985942049,2.345978187338536,0.1025404751347266,41286.139900717586
6528,Ti1.008S2,400,-9.863504944210156e-05,2.8871995558463746,0.1589751650103941,117062.20852015376
17036,Zn4Sb3,400,0.00016183192754672132,0.7239385669789489,0.6023212076625121,39425.67215302897
17037,Zn4Sb3,400,0.00016527470616755513,0.773358171995093,0.6019122711447571,40062.39648668376
17038,Zn4Sb3,400,0.00016785342213059532,0.7953448638761202,0.6009711009322781,40422.7011201444
6529,Ti1.031S2,400,-5.022852977284533e-05,2.965316974432044,0.052412947023251055,165291.1587955557
6526,Ti1.008S2,400,-0.00011031519012653786,2.3307575601046,0.12201440067505175,61844.90882341568
17058,(GeTe)90(Ag0.7Sb1.3Te2.3)10,400,0.00012699499555988582,2.002232453432033,0.3606583682391806,112510.26908856357
17059,(GeTe)90(Ag0.8Sb1.2Te2.2)10,400,0.00011768955942938374,2.0887156583536717,0.3595493136201232,135932.00036218832
486,Fe0.98Co0.02Si2,400,-0.0001807975285194128,4.267438066192564,0.022973082413922208,7497.932515370629
12412,NbCoSn0.98Sb0.02,400,-0.00010740702360771451,7.1522833775953725,0.08186558715039402,112937.95571039428
485,Fe0.98Co0.02Si2,400,-0.00014124826096149033,4.286557813343366,0.012455259316555304,6690.14066205199
484,Fe0.98Co0.02Si2,400,-0.0002700294025323997,6.3003197217547795,0.026147419453310217,5648.190299872756
483,Fe0.98Co0.02Si2,400,-0.0002040735901475124,6.088935165404282,0.010336086891734255,3778.0169353489136
488,Fe0.98Mn0.02Si2,400,0.00025906964894310564,7.579687577500528,0.010114620305219686,2855.668722767859
10153,MnAl0.0063Ge0.0108Si1.7829,400,0.0001337342472492589,2.6717168117383787,0.13536340455845836,50552.9409182291
10101,MnAl0.0063Ge0.063Si1.7307,400,0.00011941353675134058,2.46049073919806,0.12057090721383018,52011.23300303385
12413,NbCoSn0.96Sb0.04,400,-9.637301632429868e-05,7.349386213354957,0.06529244326778205,134361.03457601747
12523,Ti10Ru19B8,400,3.2409795253652556e-05,9.565443075051839,0.021886168049758604,501896.5353361178
12505,B4C,400,0.00028599022150078925,19.68818689037316,0.0004864524527625566,309.6904886799183
489,Fe0.98Mn0.02Si2,400,0.0002308238249147984,9.125042859724832,0.006379310402045022,2731.4131090814003
17060,(GeTe)90(AgSb6Te2)10,400,9.183844436498158e-05,2.5952726162936286,0.2505079659889399,185499.53535146636
17061,(Ag2Te)54(Sb2Te3)46,400,0.00027063590212592797,0.5323036550249691,0.579242658054292,10977.36745279144
17062,(Ag2Te)52(Sb2Te3)48,400,0.00027339447523184746,0.5558288702209175,0.692434135239304,13629.120487502829
10100,MnAl0.0063Ge0.018Si1.7757,400,0.0001400309737413922,2.5554161381795684,0.15058078199703398,49059.483589737785
17063,(Ag2Te)50(Sb2Te3)50,400,0.000274544096919171,0.5689016753603753,0.7348186709687257,14249.552623523028
17064,(Ag2Te)48(Sb2Te3)52,400,0.0002547743008855669,0.5746239626869036,0.7797826457905441,17291.192948578602
17065, (Ag2Te)46(Sb2Te3)54,400,0.0002180986733108686,0.5975519675961882,0.7855081467478479,24432.438742548293
10155,MnSi1.73Cr0.02,400,0.00015050947720462784,2.5032789949280567,0.11309214474795196,31243.092153096124
17066, (Ag2Te)44(Sb2Te3)56,400,0.00020653287758380846,0.7891476287359532,0.7191178964247859,33213.96887609185
12419,Nb0.99Ti0.01CoSn0.96Sb0.04,400,-0.0001203902810570488,6.737546677019307,0.08540543541286119,99302.6415098258
302,Pb0.997Ga0.003Se1,400,-0.00013674271030778226,2.2633661751383354,0.43491870989375453,131611.71668569092
10126,MnSi1.733,400,0.00015465585664103688,2.212754588967853,0.1883140355712284,43553.51467541142
49,Pb0.98Na0.02Te1,400,0.00016352780677159236,2.1219677218006567,0.7228875387062934,143405.66121948182
10113,MnSi1.75,400,0.00017127460878344267,2.767606468291297,0.18908210737655096,44597.32512460907
303,Pb0.98Na0.015Te0.88S0.12,400,0.00011680219052394585,2.2101683273605532,0.25949078829451483,105095.79256284867
10129,MnAl0.0027Si1.7973,400,0.00014862451296929687,2.5065322020231346,0.14548692839673466,41272.082508800384
12424,TiCoSn0.1Sb0.9,400,0.0002581719313201936,7.800346731302347,0.05473780959355669,19075.9310544546
249,Pb1.003Se0.88S0.12Cl0.006,400,-0.00010933038167475418,2.215180756182791,0.3874767364907042,181296.40852169442
10127,Mn0.97Cr0.03Si1.74,400,0.0001252413431990425,2.5855789439924743,0.16768932683088772,69104.73388593015
294,Sn1Mn0.03Te1,400,4.173602803941253e-05,5.580967170487268,0.038316470725036966,360807.1049111148
335,Sn1Mn0.05Te1,400,6.643005042604764e-05,4.4973640933030286,0.11543779852358972,274445.8652874341
10120,MnAl0.0063Ge0.0054Si1.7883,400,0.00014455167599095509,2.508245631044831,0.1514289603118692,45443.602339856116
178,Pb1.001Se1Cl0.002,400,-0.00015715785360294974,2.023977841136201,0.3525666345952113,72229.53096956668
10116,MnSi1.733,400,0.00015415682517879375,2.3951456664718282,0.1486609606780535,37457.89429459511
12431,Ti0.95Nb0.05NiSn,400,-0.00010950501306957673,6.273254591878787,0.20356147671904168,249502.0120288641
12433,Zr0.99Nb0.01NiSn,400,-0.0001946840980575156,8.152292788955162,0.1566760645743698,80510.25570679882
6606,LaOBiSSe,400,-0.00011461261601395388,0.9637143564465857,0.17321183803150605,31351.570134267797
12427,TiCoSn0.1Sb0.9,400,0.00018546438085939625,8.635779654408989,0.11600115882833928,76679.6308689428
10118,Mn0.85Cr0.1Ru0.05Si1.74,400,0.00012597632624008906,2.4364017682780004,0.11251627407394343,43184.34915799205
12430,Ti0.98Nb0.02NiSn,400,-0.00015945231369949613,6.216477893945682,0.2361960073678753,134474.17668407693
12429,Ti0.99Nb0.01NiSn ,400,-0.00019896284723369906,5.754132820109901,0.24121703420340104,78370.47152407291
235,Pb0.98Na0.02S1,400,9.663175127694848e-05,2.368617986088204,0.1363968584894737,86496.73179161124
435,Pb0.995Ga0.005Se1,400,-8.310322243049261e-05,2.6735343626196983,0.1805723989336638,174759.75130197988
322,Pb0.985Ga0.015Se1,400,-5.3765995900342056e-05,3.7312782351715823,0.05122487704988722,165296.31774201617
10124,MnSi1.73Al0.005,400,0.0001569543135350804,2.8305041882810182,0.13565046368154138,38965.349995036035
10114,MnSi1.7321335Ge0.0008665,400,0.00014474559810812607,2.2895076205904887,0.10583254469311132,28912.83051379345
274,Pb0.98Na0.02Te0.96S0.04,400,0.00010849481891351078,2.5701340836241364,0.25436853814581045,138848.49771935566
10122,MnSI1.75,400,0.00014987850340474976,2.291617246096165,0.23693973014405575,60428.426316235935
15429,CuFeSe2,400,9.623014332759887e-05,1.125120627423244,0.06837329434902731,20475.037482099684
12426,TiCoSn0.05Sb0.95,400,0.00018207398621884573,9.532611037685085,0.07200765825428271,53839.266713671816
12434,Zr0.98Nb0.02NiSn,400,-0.00015132396514616148,8.581370693733685,0.15639251451523414,141424.94555034154
10115,MnSi1.73,400,0.00014300034527154254,2.5845444964481965,0.16708203223006218,48378.09552961568
253,Pb1.02Se1,400,-5.7349111200639465e-05,4.046732668630066,0.10277460342208826,316138.18132345984
207,Pb1.003Se0.92S0.08,400,-9.473992154929688e-05,2.6351606591625,0.3531539686953637,259206.06344509497
17231,Zn4Sb3,400,0.0001348815896116842,1.0614044537846417,0.3626036639904087,55854.861000046185
234,Pb0.97Ca0.02Na0.01Se1,400,4.4867540182354796e-05,2.976133553363043,0.059883321842209465,204358.35813751188
10138,MnSi1.73Al0.0025,400,0.0001539049371815599,2.8502040542763085,0.14368672966015827,43224.25518450695
12422,Nb0.99Ti0.01CoSn0.9Sb0.1,400,-8.813049627917209e-05,5.9050413145492335,0.1177794485680751,235601.4080439555
160,Pb0.993Ga0.007Se1,400,-5.2964377401855017e-05,2.8082559784827064,0.08937884799512194,223688.52743964945
327,Pb0.98Na0.01Te0.88S0.12,400,0.00012400118176087994,2.05355394855402,0.2758816929966669,92112.24335892906
288,Pb1.004Se1Cl0.008,400,-7.366863362633124e-05,3.182268010202195,0.1394736004376139,204457.73447970906
17249,Zn4Sb3,400,9.62730386558896e-05,0.7866032502379275,0.2705307120441298,66739.03167037953
17221,Zn4Sb2.92In0.08,400,0.00015001745461762117,0.8900011308178035,0.414168360520054,40758.71307023954
266,Pb1.003Se1Cl0.006,400,-8.304498557388349e-05,2.6436951057122844,0.1961590227698071,187989.17284420668
10142,MnSi1.733,400,0.00014770183632106232,2.363830494759331,0.10754581389744404,29132.52050164496
299,Pb0.95Ca0.04Na0.01Se1,400,5.735781523418283e-05,2.4322817530697423,0.09906982562000777,173991.84935436115
10106,MnSi1.78,400,0.00013402382050312702,2.1803547188332617,0.21013899853194887,63769.03328492251
10141,MnAl0.0054Si1.7946,400,0.00014157205768614698,2.5246877088189343,0.1360922352904106,42857.41110344432
10107,MnSi1.73,400,0.00013918029765231098,2.975624235722637,0.10200925936710607,39174.38331007874
17217,Zn4Sb3,400,0.00015021321241486503,1.0732734269220916,0.2440656052499791,25305.72802566294
17218,Zn4Sb2.98In0.02,400,0.00015044771600183362,0.7581133911783203,0.4119674109121057,34187.127044269626
12420,Nb0.99Ti0.01CoSn0.94Sb0.06,400,-0.00011053537262738652,5.764316976128723,0.11177337368240296,126565.16985917125
270,Pb0.98Na0.02Te1,400,0.00011019579527976435,2.9757511482296284,0.2426067191601129,148630.99878741312
17220,Zn4Sb2.94In0.06,400,0.00015591536773010856,0.8226575932454343,0.4609343458796527,36804.69751592135
10137,MnSi1.733,400,0.00015327283732232257,2.19393832264285,0.17134729610905716,40004.72456348963
297,Pb1.005Se1,400,-0.00011356197864254472,2.659207969627841,0.2650472038044065,136631.12288970946
10109,MnSi1.69834Ge0.03466,400,0.00014604848655552032,2.3720351601295566,0.13658094291585934,37971.4442299684
17281,Zn4Sb3,400,0.00011539649605890991,0.905581418888054,0.387604313780167,59149.243362861256
10133,MnSi1.74,400,0.00011699880182949292,2.67564466030553,0.09889168143375,48324.27840911938
203,Pb0.96Ba0.03Na0.01Se1,400,5.968737118789163e-05,2.033651149717092,0.09660489700933006,125347.17158067807
17287,Zn4Sb3,400,0.0001334145372079101,1.1767171784423436,0.27867207810164457,43322.484883694284
17288,Zn4Sb3,400,0.00015241136556313567,1.0668725576715148,0.3084772135404211,34832.34368486169
10131,MnSi1.73,400,0.00014541586317397634,2.4348439401838298,0.09700800091195796,27925.12482710007
166,Pb1Se0.88S0.12Bi0.003,400,-8.619495662093933e-05,2.4943510089243963,0.15427198580802454,129485.4396430502
10110,MnAl0.0063Ge0.045Si1.7487,400,0.00012960806254637994,2.4334844417210286,0.13916140544077707,50399.16620887164
6607,LaOBiSSe,400,-0.00010249024593956086,1.4788776350497224,0.14474905240869093,48593.62544897679
387,Pb0.98Na0.005Te0.88S0.12,400,0.00017139094862776293,1.4044025563327187,0.4308046828286049,51491.58617624152
17282,Zn4Sb3,400,0.0001437630737236876,0.7548736700649052,0.4452771631508803,39416.13288681467
12458,In0.17Ga0.83N,400,0.00013967188843441177,2.82097160365882,0.057923053135054615,21260.378131068985
17252,Zn4.24Sb3,400,0.00016094084564000603,0.7519375643060997,0.5182963603024222,38868.341322588014
17251,Zn4.16Sb3,400,0.00015729063038279198,0.7376732483735099,0.4790741985822546,36879.34824711914
17253,Zn4.32Sb3,400,0.00015683119274538185,0.7806718323837993,0.5110532632454956,41897.70168099575
17254,Zn4.40Sb3,400,0.00014240353299604962,0.8548447920163124,0.4186713700789705,46254.64941152618
369,Pb0.98Na0.02Te0.7S0.3,400,0.0001175923952160242,2.090789404560925,0.25736784153385217,97285.05000772502
10136,Re0.04Mn0.96Si1.8,400,0.00013593586213454386,2.2535518082692145,0.1665312404760932,50773.27538666487
12421,Nb0.99Ti0.01CoSn0.92Sb0.08,400,-9.684017168259962e-05,6.451090084139568,0.1095472378785826,184247.98591266913
237,Pb1.002Se1Cl0.004,400,-0.00014309862882954202,2.085770040453028,0.4995243275418851,127201.47075101474
10108,MnSi1.73Cr0.005,400,0.00015216641312117054,2.2556252411904025,0.12804758964416638,31184.64146430439
10097,MnSi1.733,400,0.0001550158046249138,2.165922652857367,0.1747923237746412,39387.040582287606
544,Ba24Ga9Ge91,400,-4.212039260620191e-05,2.1692502826440108,0.049355483222513374,155727.74295367373
16822,(GeTe)75(AgSbTe2)25,400,0.00020304053070101908,1.2037361936899718,0.7413041276111799,54522.145359790215
10086,MnSi1.73Al0.001,400,0.00015383271196243,2.6010079164640736,0.13449477512937222,36956.4037376424
16823,(GeTe)80(AgSbTe2)20,400,0.0002077863168929658,1.148031455947221,0.5500771177395589,37117.31468728096
16824,(GeTe)85(AgSbTe2)15,400,0.00014524882613674943,1.619965822780864,0.5493510778342627,103073.618578655
16825,(GeTe)90(AgSbTe2)10,400,7.008747349020522e-05,2.3665337211195907,0.15785314794775912,184649.74832916094
16826,AgPb18SbTe20,400,-0.00038009054356566614,0.9153973170026788,0.09861675188819316,1539.268272826318
16827,Ag0.9Pb18SbTe20,400,-0.00035852522364810486,0.9819529106013454,0.13771869266725972,2405.0839129020724
16828,Ag0.8Pb18SbTe20,400,-0.00034548561698807324,1.031221200009205,0.20232592281376585,3826.0292790474873
543,Ba24Ga4Ge96,400,-3.110696659025558e-05,2.9389224109580248,0.023862299086466757,201158.7460783147
542,Ba24Ga0Ge100,400,-2.5930485253576295e-05,3.360726301645565,0.017199523368970404,203792.28579786507
16834,AgPb17SnSbTe20,400,-0.0002150611235543577,1.2151408040085645,0.3809527175210965,23251.1824515316
16821,AgSbTe2,400,0.0002762585360936911,0.4684443932404393,1.041999925589004,15448.072341608453
16820,AgSbTe2,400,0.00027305557152234623,0.5668824768563494,0.7419368268828275,14173.723969229475
12659,NbCo(1+x)Sb here x is 0 ,400,-6.432525854548944e-05,6.2891759664190365,0.0728860228402011,283092.37007853674
16819,(Ag0.366Sb0.558Te)0.92 (GeTe)0.08,400,0.0001429607597034085,0.9822446078905308,0.1003246171868492,12142.24100698375
6399,YbCuZnP2,400,0.00010455045538301758,2.2567475384216693,0.0885203215628032,45734.959853595734
10197,FeAl0.06Si1.95,400,0.00023911475392047115,4.369255705604167,0.030555562395297508,5837.474608691465
12664,ZrCo(1-x)Pd(x)Bi here x is 0,400,-3.865168696946845e-05,12.077163061985193,0.0004377252123387615,7587.586455116502
16807,AgSbTe2,400,0.000195388706751248,0.7768623181477011,0.5779365939708578,28418.115264397144
16808,Ag(Sb0.97In0.03)Te2,400,0.00021667656507474235,0.7314991586893704,0.6217116277003488,23130.788464033398
16809,Ag(Sb0.95In0.05)Te2,400,0.00024070812182159035,0.6895738056234672,0.7164548620757192,20411.33350956357
10196,Fe0.95Co0.05Si1.946Ge0.054,400,-0.00013929508489483338,4.980860469455282,0.028367713683312205,18205.27043748096
16810,Ag(Sb0.93In0.07)Te2,400,0.0002584206474579855,0.6663788554053127,0.7949291532127571,19042.16313135933
12662,NbCo(1+x)Sb here x is 0.4,400,-0.0001275599776543891,4.082402433223153,0.0795959471618791,49102.98625284294
546,Ba24Ga15Ge85,400,-6.843288278095304e-05,0.8062515191505866,0.17625061100688333,78290.15596151967
16814,Ag0.366Sb0.558Te,400,0.00039408480129327127,0.5406113684193444,0.4235021300843731,3617.3346012935936
16815,(Ag0.366Sb0.558Te)0.99 (GeTe)0.01,400,0.0002360933214207688,0.5835703472885682,0.2691108919275001,7137.313182518179
12661,NbCo(1+x)Sb here x is 0.3,400,-8.804704697270863e-05,4.955063195918861,0.09501972663672456,155020.9626351541
545,Ba24Ga12Ge88,400,-5.6352229815455517e-05,1.3427196382753523,0.11755719562679368,131447.48560145532
16817,(Ag0.366Sb0.558Te)0.98 (GeTe)0.02,400,0.00022471746506331998,0.6637312480455771,0.2833119421611509,9302.647433277803
12660,NbCo(1+x)Sb here x is 0.2,400,-7.322566713397872e-05,5.6449488490470765,0.09083975243180432,236231.6420566408
16818,(Ag0.366Sb0.558Te)0.96 (GeTe)0.04,400,0.00018429865840432325,0.8005239239014632,0.19697493195774876,11579.025014877978
12663,NbCo(1+x)Sb here x is 0.5,400,-0.00011195406704746616,4.081640624521478,0.04242444317653081,34058.12127953364
10191,Fe0.95Co0.05Si2,400,-0.00016647009585981498,4.291736753505553,0.04032310780389231,15611.859051974861
6402,EuCd1.9Mn0.1Sb2,400,0.0002877493536982627,1.1324156210552636,0.10299318226925264,3289.5584567268543
16871,Zn4Sb3,400,9.959381770847306e-05,0.8615254182362946,0.3832056405039205,68268.10304225574
12640,WOx here x is 2.86.Matrial family tungsten oxide,400,-2.485204282969419e-05,5.082066706617562,0.010696913406323422,228573.10271661726
10187,FeAl0.05Si2,400,0.00026403540786856843,6.790751926865108,0.02849317804027648,6938.641100548905
12639,WOx here x is 2.84.Matrial family tungsten oxide,400,-2.672092287739139e-05,5.6958337144871685,0.01568637265932272,324813.4413655151
10186,Fe0.99Co0.01Si2,400,-0.0003112831605005173,10.828890423827158,0.02078517945549947,5807.196100607695
16874,Zn4Sb3,400,0.00014283626448244172,0.917337581511472,0.2306658421827948,23423.698429083706
16875,(Zn0.999Pr0.001)4Sb3,400,0.00014186781747305756,0.8017833123919833,0.2459007539868229,22591.508389572267
526,MnSi1.75Al0.005,400,0.00015845881305912913,2.7153269301231386,0.10135874394942927,27402.523484838603
16876,(Zn0.998Pr0.002)4Sb3,400,0.00014353324110363732,0.7787470662911382,0.3083441098951573,26764.818456620796
10185,Fe0.85Cr0.15Si2,400,0.0002640445381250448,14.170880919109123,0.011135159619528042,5658.208248310783
12666,ZrCo(1-x)Pd(x)Bi here x is 0.3,400,-0.00013029970958285342,10.97706395801552,0.051738545501840816,74560.04165447067
537,Ba24Ga0Ag0Ge100,400,-2.9675432976264776e-05,3.1105573486437894,0.01848419224665429,195020.9990920853
6401,EuCd2Sb2,400,0.00025009022862580466,1.4424898171151317,0.19964260871512876,10340.465827743841
541,Ba24Ga8Ag2Ge90,400,-3.900279784536911e-05,2.1997597392285,0.03996226495848737,145527.90243017796