sampleid,composition,Temperature,Seebeck coefficient,Thermal conductivity,ZT,Electrical conductivity
10982,ZrCoSn0.15Sb0.85,400,0.00015297621352632843,8.074920354841483,0.1181751534028452,110001.7965828156
14285,Cu0.9In0.9Mn0.2Se2,400,0.000518126045963821,2.6051695042094734,0.006862494539690322,153.918212720724
14506,Cu1.8Ag0.2SnSe3,400,0.0003132698275942202,0.9459285455218271,0.06447099003241236,1701.2002504850302
13874,Mn0.48Te0.52,400,0.0006248479935783214,1.5515816696019875,0.00624771710984362,61.592544793887555
14507,Cu 2SnSe3,400,0.00011178734432690879,2.3164941421379637,0.041104167957445766,19369.1982973486
13877,Mn0.51Te0.49,400,0.0006034042734849737,1.3068678626197223,0.009093514961153735,75.58347094498367
5147,Sr0.3Yb0.2,400,-0.00011495966552750105,3.8859149788496934,0.3175633124393244,233962.839807385
13325,MgAgSb,400,0.00012115599805861457,1.2918219383100606,0.5052642336031348,105363.04648958473
5146,Sr0.3Yb0.3,400,-0.0001007977629939006,3.7475748508697264,0.3031154049922171,276034.7398195056
5145,Sr0.3,400,-0.00015442829684771906,4.667238606406574,0.1932347197526593,111845.1345707664
5851,MgAg0.97Sb0.99,400,0.000252921165533014,0.8001691270738552,0.9665692464794112,29463.168442990125
8382,Mg2Si,400,-0.0006024193146035249,7.47036489897213,0.02011773955186725,985.7343737291612
5148,Sr0.3Yb0.1,400,-0.00012799346130041398,4.052456368587027,0.2593671092378765,154598.49034137052
14470,CuGa0.99Zn0.01Te2,400,0.00011874454669118103,5.744152274052054,0.034557815378346284,38326.871798448046
6020,Eu11Zn6Sb12,400,0.00014306929316798154,0.8893669016507179,0.11175471340506024,11075.24812410198
6019,Eu11Cd1.6Zn4.4Sb12,400,9.029760397714092e-05,0.8944176233859725,0.12402822591187106,28644.494385530343
14461,In0.015Sn0.985Te,400,9.943024297851792e-05,3.4402820272566585,0.16394097096256074,144843.6460978745
14462,In0.03Sn0.97Te,400,9.156513319905066e-05,2.7255053286221145,0.18016281456663447,147047.05539231445
14465,La2.2Ca0.8Te4,400,-8.586494065113419e-05,1.1619528363544689,0.09976148960673674,39306.075696295615
13338,MgAg0.97Sb0.995,400,0.00022079811716736348,0.8876020015021382,1.0408266409232307,46614.8209335051
13884,Mo3Sb7,400,2.0480565110912062e-05,6.440105566686655,0.01466614048259715,567545.6317557443
13883,Ge0.95Mn0.05Te,400,9.262184614045851e-05,3.1351744741423357,0.3525628738372554,290641.2394177205
13882,Ge0.97Mn0.03Te,400,7.605273558466513e-05,3.7511883116742446,0.2317081130650977,305057.9274904162
13885,Mo3Sb6Te,400,4.312165509496253e-05,4.390556398874134,0.04808791282474778,280351.8163897789
14483,Cu1.95Se,400,8.079947349007152e-05,1.056121829448445,0.22775905599947535,88574.86235158342
14477,AgSn4SbTe6 ,400,9.907454288922974e-05,1.934286317824889,0.3464235737877653,165543.48894938562
13337,MgAg0.97Sb0.9925,400,0.0002423642339444745,0.817489583297314,1.0142248857344915,34873.24397461123
14478,AgSn4SbTe6,400,0.0001048103115307993,1.804588179418936,0.3875351734197775,154492.48525073667
13888,Mo3Sb4.8Te2.2,400,7.258436882757774e-05,4.477630277450765,0.03519916853925903,83347.22569212128
14479,AgSn4SbTe6,400,0.00011007500123053982,1.7225243811613802,0.4228337265844506,145697.24448181456
13887,Mo3Sb5.2Te1.8,400,8.874279953618894e-05,4.529532423192351,0.07334879912245698,102608.19987036462
14480,AgSn4SbTe6,400,0.0001073067289804022,1.7659674553074227,0.4005491578865695,149099.47999796286
14481,Cu2Se,400,0.00014596493986735484,0.5313522272081773,0.7289288592278826,48622.48864775798
13336,MgAg0.97Sb0.99,400,0.0002536263280427572,0.7781280599525131,0.9969809127784008,29633.83751311952
13886,Mo3Sb5.6Te1.4,400,6.256062132739157e-05,4.0535974429186785,0.0687763231981238,180398.8706933597
5841,Bi0.4Sb1.6Te3,400,0.00023677637855738722,1.0694560476304118,1.125940491016894,54376.47536655291
14482,Cu1.98Se,400,0.0001076235001178961,0.847092724383947,0.3693816484541532,66284.062146293
10117,MnSi1.73,400,0.00015071472717280275,2.5974485286009856,0.1471449220177839,43228.01072347372
13843,Tl9Bi0.99Te6,400,0.0002183255354116834,0.4356127913331434,0.7460553035126585,18655.853664806134
5117,Co0.9Ni0.1Sb3,400,-5.1690218692116934e-05,9.946940673205818,0.007004135800732737,68557.01474807055
13842,Tl9BiTe6,400,0.00024013018718244613,0.4121937443204653,0.7121038497420422,13801.50431140896
13848,Tl9BiTe6,400,0.00024069170484471592,0.4185921852995975,0.6992817272459202,13178.243174807705
13311,Ce0.7Cu0.3Se2,400,0.00015252040362353722,1.96495344993574,0.04298699507202965,9415.788144522385
13847,Tl9Bi0.95Te6,400,0.00016766709597530415,0.5404766195338708,0.5938785780454418,30024.315265843765
13846,Tl9Bi0.96Te6,400,0.00017686886854239382,0.5624392608383866,0.612813127689136,28183.920547593112
13845,Tl9Bi0.97Te6,400,0.00018058547274432755,0.5089481536240882,0.6753305666816459,26956.4640298908
13844,Tl9Bi0.98Te6,400,0.00019695521227589105,0.4549636418389663,0.7152311894756651,20955.513144932018
13309,Ce0.9Cu0.1Se2,400,0.00032626943106686955,1.0282135276256137,0.06528297401107046,1618.5090934219058
13833,Sb2Te3(GeTe)12,400,7.399106373522484e-05,2.4014962524606847,0.2612788183725597,244541.73545743807
9424,(Mg2Si0.9975Sb0.0025)0.4(Mg2Sn)0.6,400,-0.0002787031515274936,1.3179953393186232,0.35657166027085585,14341.432787095031
5114,Co0.975Ni0.025Sb3,400,-0.00016600833037211184,7.024702004991366,0.03168108495249364,18216.881270018977
5115,Co0.95Ni0.05Sb3,400,-0.0001138923885385241,6.7086416474619694,0.032349513787755566,39302.53003175594
9417,Cr0.01Bi2Te3,400,0.00015540007658154507,2.224025758991441,0.4848414101813174,91213.81804820494
5116,Co0.925Ni0.075Sb3,400,-9.927955488243295e-05,6.534997623090585,0.038546584259871834,55980.21721597918
9418,Cr0.03Bi2Te3,400,0.00012430937778073702,2.4954158198527416,0.3533468567146295,117865.02546498676
9420,Cr0.03Bi1.97Te3,400,0.0001485400519077017,2.4906658011371157,0.2091926639695546,52505.512620644164
5141,Sr0.23Co3.95Ni0.05Sb12,400,-0.00012209805692114462,4.2995027445254745,0.2855687935566533,201682.7945588797
13858,Tl8.85La1.15Te6,400,0.00013225287542869256,0.3971939428659532,0.15488561986931054,9452.997076662328
13857,Tl9LaTe6,400,9.119842854720926e-05,0.4701101447791856,0.14149304661418238,21153.977842324457
5140,Sr0.19Co3.98Ni0.02Sb12,400,-0.00014908247071521876,4.274580617186107,0.2899651871637191,141850.95509358012
14535,Ag3SbSeTe2,400,2.238214465628228e-05,0.5494984902059438,0.0005938199496868223,1628.3880232264223
14536,Cu0.1Ag2.9SbSeTe2,400,6.218453053053271e-05,0.5351666323660124,0.008948061705657592,3095.945354580215
14537,Cu0.2Ag2.8SbSeTe2,400,7.618291501806511e-05,0.4968134358345469,0.025521870208718097,5461.735499660168
13856,Tl9.25La0.75Te6,400,5.9879168759606774e-05,0.8625706505976999,0.04762164915966692,29820.91507372484
14538,Cu0.2Ag2.8SbSeTe2,400,0.00019102917843417456,0.4407150842086266,0.04787085880783977,1445.3390179388696
14539,Cu0.2Ag2.8SbSeTe2,400,8.229707970437057e-05,0.4584033731946791,0.016126465776439763,2728.714906830289
5852,MgAg0.967Cu0.003Sb0.99,400,0.0002476202853051032,0.7796547213911097,1.05893561985768,31681.864966185713
5143,Sr0.26Co3.95Ni0.05Sb12,400,-0.00011473127344101928,4.397551403267443,0.2991926110381676,245043.98593208968
5853,MgAg0.963Cu0.007Sb0.99,400,0.0002361780530218937,0.7610706578674536,1.1265414337163424,38165.35578802115
13860,Ge1.3Sn0.7Sb2Te5,400,3.431275076306241e-05,1.9886106701726767,0.036116796294426864,152506.34833565378
5142,Sr0.21Co3.92Ni0.08Sb12,400,-0.00013017759501014704,4.251503171367101,0.28750021237926904,171859.70314364939
5854,MgAg0.96Cu0.01Sb0.99,400,0.00024845782301227047,0.7481671442654674,1.0659560746683696,31758.732837390064
5855,MgAg0.97Sb0.99,400,0.0002560433073461797,0.8151372119611375,0.9458012759379856,27212.049140168307
5139,Sr0.22Co4Sb12,400,-0.0001402718786572286,4.568720652848804,0.25898809835459285,146168.67709070025
13852,Ge0.87Sb0.09Te,400,0.00012579811284352756,2.4878218322230667,0.34371721574618586,135519.44000860525
5856,MgAg0.97Sb0.99,400,0.0002468042448036828,0.7984672109737956,0.9106217342849195,27071.739936406808
5130,Co0.98Mn0.02Sb3,400,0.00014598231349420175,2.1587200112851583,0.0983255416714598,21236.175566144804
13851,Ge0.87Sb0.09Te,400,0.00011212425820466064,2.497451580962873,0.2610197970503209,133362.11501529798
5129,Co0.99Mn0.01Sb3,400,0.000145266302846298,2.6383132737029418,0.09161469303390496,23648.81184239172
13850,Tl8.95Bi1.05Te6,400,-0.000139732978390203,0.3478926949337393,0.009821785644520749,441.1407616143738
5128,CoSb3,400,0.00015330711225218507,3.6806376492668473,0.07554958860131744,25506.087646414813
13853,Ge0.86Sb0.09Te,400,0.00012004668273277505,2.5432678332242,0.2838945088982203,121635.77211162508
13855,Tl9.5La0.5Te6,400,3.0821918247959415e-05,1.229559026137775,0.031358800102482286,119093.35227577074
13849,Tl8.99Bi1.01Te6,400,0.0002753154478137816,0.3494844687212489,0.5157298312669918,6090.288571143929
5132,Co0.95Mn0.05Sb3,400,0.00014257847497382468,4.3468692975751315,0.07278785605293198,35712.024302099315
13854,Ge0.86Sb0.09Te,400,0.00013913216708337902,1.8460688855008585,0.38035646857146777,107745.27780526305
14546,La3Te4,400,-4.4908676869164976e-05,2.0559594468053315,0.03371314369175868,101192.16136009492
13937,Cu2Ze0.9Fe0.1GeSe4,400,0.00028584804365030137,2.167582243853878,0.018413686307886482,1221.197440134518
13385,Cu2MgSnSe4,400,0.0002958613892532662,1.808189923607596,0.041164073483597324,2238.1532811139405
10973,Nb0.99Ti0.01CoSn0.98Sb0.02,400,-0.00013573942605159955,6.340402000071008,0.08213191995424246,66357.27189072859
13936,Cu2ZnGeSe4,400,0.00030652195300404577,2.0330172754909874,0.005176599026012472,280.0286302125066
10972,Nb0.99Ti0.01CoSn,400,-0.00012724277040540506,5.817727392553478,0.033102023657844135,26078.13819742469
14323,In4Se3,400,-0.0004367640095081337,0.7368186429060851,0.032663311553998035,254.11957177940442
13940,Cu2Zn0.7Fe0.3GeSe4,400,0.0002215417921300788,2.0038354853631573,0.017629474180114967,1799.4098846673792
14324,In4Se3,400,-0.00043856147083522255,0.7372752996123457,0.02982141895023327,264.33321804422303
14325,In4Se3,400,-0.0004251546438799567,0.702172939887453,0.11620523205250775,1084.7051484712601
10975,Nb0.99Ti0.01CoSn0.94Sb0.06,400,-0.00011075048850462825,5.789503667450633,0.11206737943479313,127849.78273050391
14327,In4Se3,400,-0.0004343437220758036,0.6875819724624959,0.04604173966158465,347.14130541368286
13388,Cu2.1Mg0.9SnSe4,400,9.594395171049859e-05,1.941056971533009,0.09130094440331576,41686.53948172147
14328,Cu2ZnSnSe4,400,0.000247886116129531,0.7844380793488923,0.06727482478671942,2084.370049482466
14329,Cu2.05Zn0.95SnSe4,400,0.00016013751850952186,0.7984561566985153,0.1386340096680408,10237.495956264622
13387,Cu2.075Mg0.925SnSe4,400,8.862229491600307e-05,1.7795956685447847,0.02926917436630955,16679.731249882894
10974,Nb0.99Ti0.01CoSn0.96Sb0.04,400,-0.00012126322133751321,6.750513013659723,0.08587932164135309,101267.18346127436
13938,Cu2Zn0.8Fe0.2GeSe4,400,0.00019605274326169267,1.9661365643825013,0.023339413646905303,2984.680049272652
14330,Cu2.1Zn0.9SnSe4,400,0.00015159859761258628,0.7879384370012106,0.1595765957395585,12515.799293943492
13386,Cu2.05Mg0.95SnSe4,400,0.00011776248261886177,1.6975035550994573,0.04984818756944071,13690.845889834258
14335,Yb0.33Co4Sb12.2,400,-0.0001476989992252573,3.4089474968481395,0.5291174823257767,200211.44816043772
10971,NbCoSn0.9Sb0.1,400,-8.9195971303695e-05,6.494169549742705,0.1032554631415935,216120.58119508968
14347,Cu2HgSnTe4,400,4.443617624579616e-05,2.3811569133182915,0.06295723175974999,182859.66548046254
10968,NbCoSn0.96Sb0.04,400,-9.642342095625692e-05,7.3806580495337855,0.07012084477769404,137956.02766169142
14348,Cu2HgSnSe0.8Te3.2 ,400,7.325446232185066e-05,1.6738705410837849,0.11008644110227084,74602.54931428692
11955,NbCoSn,400,-0.00014486089166283392,8.023556904264304,0.06581783301137134,71793.33188050898
14349,Cu2HgSnSe3.2Te0.8,400,0.00016425705088014519,0.6481309970908964,0.20214604962748944,9759.618120889892
10967,NbCoSn0.98Sb0.02,400,-0.00010751201207152059,7.3418951846791645,0.07769745206513867,111450.46917639377
10969,NbCoSn0.94Sb0.06,400,-9.531660593825317e-05,6.609320467259617,0.09784680700408248,178438.8695916055
14336,Yb0.30Co4Sb12,400,-0.00013135998354546065,3.4666603538643685,0.5207018553929301,253008.469435308
14337,Yb0.33Co4Sb12,400,-0.00012153233093433948,3.4342305834238007,0.470478965659241,266110.9220070613
14338,Yb0.36Co4Sb12,400,-0.00011693853622114802,3.567384252998309,0.4423990155310375,278467.43220965605
14322,In4Se3,400,-0.0003820327185131811,0.7745425381069408,0.024942319833975102,363.8569182530082
14339,Yb0.40Co4Sb12,400,-0.00011735203307130108,3.5201996818328998,0.4478212124892096,278896.4602617649
10970,NbCoSn0.92Sb0.08,400,-8.651016787037264e-05,6.984928194300108,0.08625986106299972,189788.85077671378
6005,Yb1.05Zn2Sb2,400,0.00019273766653713143,1.3834530905107465,0.3588658919880099,29220.878759863965
13953,Cu2Zn0.2Fe0.8GeSe4,400,0.00016596058782385458,1.9579526140425043,0.034148454584921335,6068.806784517642
13952,Cu2Zn0.3Fe0.7GeSe4,400,0.00017448946357525886,1.9365026089876296,0.0387621804111665,6163.506788253086
13558,Cu1.6Bi4.75Se8,400,-0.00016271888691199736,0.4746872501649077,0.18864848016905167,8455.2208685609
13951,Cu2Zn0.4Fe0.6GeSe4,400,0.00017823455537173738,1.9301224818824525,0.0364155503468125,5531.309270576782
13950,Cu2Zn0.5Fe0.5GeSe4,400,0.00018693681284597023,1.9739376135014584,0.031384833127764404,4432.039141668225
14286, (BiSe)1.09TaSe2/TaSe2,400,-8.019115211539076e-06,4.399467499966471,0.0022847132383997113,390767.93012729415
6002,Yb0.99Zn2Sb2,400,9.755722437805188e-05,2.4760761162019653,0.2379801945928409,139187.20909835678
14287,(BiSe)1.09TaSe2/TaSe2,400,-1.4010478253390385e-05,3.0132629816633805,0.004907167918041167,188322.42745293246
6003,YbZn2Sb2,400,0.0002114469252168314,1.830820761648632,0.3928933133526215,37569.867152184415
10981,ZrCoSn0.1b0.9,400,0.00018738853092167268,8.687670028008528,0.1125368529489292,76592.8263894362
13557,Cu1.5Bi4.80Se8,400,-0.00014162041563382005,0.5676145312698947,0.15633848706809833,11051.694047510833
13955,CuFeGeSe4,400,0.0002170587451205532,2.2472109025166294,0.03766060660368902,4490.726201642552
14291,Cu3Sb0.99Al0.01Se4,400,0.0003697744268514775,1.6642592653258683,0.1252664785317208,3578.5780388300504
13954,Cu2Zn0.1Fe0.9GeSe4,400,0.00017540955340102825,2.09047092051964,0.038580750118420735,6553.123020973525
14292,Cu3Sb0.98Al0.02Se4,400,0.00035304445175206,1.7564561456341323,0.12845468278373756,4322.687218790613
6004,Yb1.025Zn2Sb2,400,0.0002070677119305237,1.7117096721617036,0.3616582672274653,31314.33370394204
14293,Cu3Sb0.97Al0.03Se4,400,0.00018581028384230934,1.7248869753214873,0.15208850653549344,15483.506549910266
10980,ZrCoSn0.05Sb0.95,400,0.00018440786508126756,9.675566210296996,0.06734689574333035,53133.286481411466
13943,Cu2Zn0.6Fe0.4GeSe4,400,0.00024283216091297496,2.0467096750798044,0.016172516378023718,1403.3352739886145
10977,Nb0.99Ti0.01CoSn0.9Sb0.1,400,-9.004092904516999e-05,5.969219402103546,0.11827137370771296,237871.86217502053
10976,Nb0.99Ti0.01CoSn0.92Sb0.08,400,-9.800325271197254e-05,6.485618993109073,0.10988563218390808,182271.49350453398
14306,Cu3SbSe3,400,0.0005304541689075731,0.22983054646638335,0.01487944789966292,25.47764359098233
13559,Cu1.7Bi4.70Se8,400,-0.0001372914210018243,0.5376804121357361,0.1979826596405642,14144.486713286962
13561,Cu1.9Bi4.60Se8,400,-0.00011119969815221906,0.5309786132369944,0.16642185542752186,17805.086825909664
14313,PbSe,400,0.000320604111769436,1.235217195890394,0.08673422837104153,2415.7385379136804
13560,Cu1.8Bi4.65Se8,400,-0.00013073778245652881,0.5225863865867869,0.18284786604833528,14045.672318638208
13355,Zr3Ni2.7Cu0.3Sb4,400,-0.00014496045740158486,3.9040773119773324,0.20931574904748568,87636.54786357803
13354,Zr3Ni2.5Cu0.5Sb4,400,-0.00010372596857333166,3.794957916040814,0.1654932014079935,126454.5116015486
6016,Eu11Cd6Sb12,400,0.00013560380210280698,0.7305556652398179,0.12969744912603118,11867.089863344805
13912,Ag8SiTe6,400,0.0004486412502613238,0.2514220866126305,0.03459782713968257,127.39164845028324
6017,Eu11Cd5ZnSb12,400,6.265794959350475e-05,0.9268515434241592,0.058720372269874116,32726.075436878964
13909,CuGa0.995Gd0.005Te2/0.7vol.%Te,400,3.8125233575381894e-05,2.7624147929122507,0.0036326627435424312,18772.923343429007
13352,Zr3Ni2.7Co0.3Sb4,400,0.00010179140110750285,2.8330538233750837,0.14806523871915656,96642.90424891542
5161,Sn0.25Co4Sb11.625Te0.375,400,-0.00017912339370015207,4.4334577584695305,0.29031408615461063,97155.84501016088
13349,Zr3Ni2.95Co0.05Sb4,400,0.0001976278390337306,3.071310898327705,0.20121179979586595,36422.030602692445
13348,Zr3Ni3Sb4,400,0.0003754021728906968,3.529890144104949,0.04003533416910921,2372.703123933553
5159,Sn0.25Co4Sb12,400,2.9484339765000305e-05,3.8166316747815334,0.014475088342832147,141949.18740414508
14456,In0.005Sn0.995Te ,400,6.196829358183338e-05,5.291562864041274,0.09582635688236983,388088.02279777045
14457,In0.015Sn0.985Te ,400,9.450558262431852e-05,3.930165858445257,0.2122535265287014,235408.74966414747
14458,In0.03Sn0.97Te,400,9.478549914326263e-05,3.504551793603841,0.25518741179560994,237055.68869532915
6018,Eu11Cd4.5Zn1.5Sb12,400,0.00015345930948243626,0.8057117896866248,0.2187708791528015,19306.262520793225
5160,Co4Sb11.625Te0.375,400,-0.00015607528297608377,1.9678653650807607,0.39464072720770615,79835.87621886878
13351,Zr3Ni2.8Co0.2Sb4,400,0.0001317995601698469,2.474683373341486,0.21494282877402293,76497.47781028053
6015,BaGa1.9Zn0.1Sb2,400,0.0002255130533679645,1.1110553903080995,0.2332906986122951,12262.558266500862
14360,(PbTe)0.1(Ag2Te)0.9,400,-0.00010966665469940072,0.6582580705465897,0.5296034220426561,62834.546317678825
10966,NbCoSn,400,-9.217007789912204e-05,6.8834782635419645,0.02583197510757814,43898.11024367357
13918,PbSeIn0.005,400,-7.146780150652132e-05,3.024871134269417,0.18367557044932106,250240.91368555088
6013,BaGa1.975Zn0.025Sb2,400,0.00020369996717575344,1.0950327279433267,0.2334842733914341,14249.883892060163
6014,BaGa1.95Zn0.05Sb2,400,0.0002236222747929732,1.153354049669118,0.2440805052432072,13116.073772014852
13917,PbSeIn0.003,400,-0.00010557263600071554,2.405846816282766,0.2730332994003656,129432.90637586775
13916,PbSeGa0.007,400,-6.594623542214251e-05,3.515131434719273,0.18275396464274773,349958.33353995736
13915,PbSeGa0.005,400,-7.426962233483102e-05,2.9786940990768285,0.2221715795473257,274262.1875951
13914,PbSeGa0.003,400,-7.620426061750844e-05,2.5303308373061224,0.2088086450367237,208260.28641145944
13922,Cu0.5Ag0.5GaTe2,400,0.0005139358164952705,1.2331648567750897,0.05169092820572496,622.4176895755353
6012,BaGa2Sb2,400,0.0004073944157576429,1.0429411615484736,0.05443267715307202,836.4624745896843
13919,PbSeIn0.007,400,-6.863907979823496e-05,2.995375248698084,0.17147592609543386,253603.86532315105
14290,Cu3SbSe4,400,0.00041435483877951635,1.692002249234884,0.06860387253035932,1535.1673533414016
16511,Zn3.675In0.125Sb3,400,0.00017667063071345802,0.8411348218857041,0.5645019032762624,35696.233442812445
16510,Zn3.725In0.075Sb3,400,0.0001786684700754507,0.7019867631634056,0.6323553921436691,31387.71173728813
16509,"Zn3.75In0.05Sb3,",400,0.00017646384284976076,0.7524580744211928,0.5279252544141011,31040.2715798892
16508,Zn3.725In0.025Sb3,400,0.00013751634744711209,0.8051050220156638,0.23312133984068675,22477.142865147503
16520,ZnSb,400,0.0003764911506115528,1.5602008762268025,0.06282564227381171,1461.196661254049
16507,Zn4Sb3,400,0.00014490053777506818,0.8894201345089863,0.10327146159488808,8984.446975791489
12718,In4Se2.32Cl0.03,400,-0.0002372400207445501,1.0425378662637077,0.5340085930972324,23995.943424370907
12717,Cu1.94In0.02Se,400,0.0001245464827820585,1.2549496830007876,0.23908596489391756,50172.64222198549
10232,Fe0.97Co0.03Si2,400,-0.0002326154918399913,6.555919561979429,0.02874462453170549,8706.688275935361
16564,Mn36.4Si63.6,400,0.00015069430211505952,2.7851112510491496,0.13634256130991618,39983.135433238356
16536,Zn4.01Cd0.04Sb3,400,0.00013750161458710413,0.770804319981566,0.536645664582345,53616.59325880083