sampleid,composition,Temperature,Seebeck coefficient,Thermal conductivity,ZT,Electrical conductivity
13528,Nd0.92Sr0.08OZnSb,500,0.00012308244514570857,1.9423637261626072,0.0731964989839388,15563.880073732933
14249,Tl9GdTe6,500,5.771994436876936e-05,1.0840169538285092,0.08602755457205269,48117.28638106381
17254,Zn4.40Sb3,500,0.00015632857798417345,0.8108916257657829,0.6090488146429658,42366.27586382684
16424,Ag0.5In0.35Pb5Sn4Te10,500,0.00012143463464107234,1.4297991755538586,0.464811217903736,84731.83193917923
15025,YbSb2Te4,500,0.00010712191759023164,0.6975815399803361,0.4029777274224411,46026.32354028544
14250,TlGdTe2,500,0.00010980980517521949,0.4813130789430943,0.4537507508730522,33459.63128027515
369,Pb0.98Na0.02Te0.7S0.3,500,0.00019013858637868624,1.5927876169893622,0.5591785394883727,49271.733291715616
10136,Re0.04Mn0.96Si1.8,500,0.00016421531757279667,2.3094202688616416,0.27060278571673274,46348.73686411536
9607,Mg2Si0.6Sn0.4,500,-0.00014662541727466095,3.201947494653852,0.4752189630724409,134268.84945295495
4518,CoSb2.9Te0.1,500,-0.0001302298487904724,5.031550305276221,0.19572968198337,119442.2467545142
10108,MnSi1.73Cr0.005,500,0.00017069937849500998,2.181368864305334,0.18708132601886784,28010.80985028262
5986,YbCd2Sb2,500,0.00016886927387772325,1.4455236066926718,0.4383917360226601,37557.017553872814
13525,Nd0.96Sr0.04OZnSb,500,0.00013086860485211752,1.7988060460975048,0.06512815942820452,11038.164621860313
13526,Nd0.94Sr0.06OZnSb,500,0.0001360815703068381,1.615125423255752,0.08721191462140668,12755.954651163502
16447,(Zn0.99Cd0.01)4Sb3,500,0.00015815449857549798,0.8749222952214111,0.6706763943088259,46423.222066784656
16425,Ag0.5In0.3Pb5Sn4Te10,500,0.0001118032023077104,1.4141524056998065,0.509647008361855,100952.70012429699
12412,NbCoSn0.98Sb0.02,500,-0.00011934987448893024,6.824318592205435,0.10897964980258686,96057.41993743449
4519,CoSb2.8Te0.2,500,-0.00011931447690164453,4.034895895760424,0.24861739962812054,139796.61842335606
15069,CaB6,500,-9.622536859972416e-05,20.4533233817678,0.06954567467013162,261034.6632476431
13529,Nd0.93Sr0.07OZnSb,500,0.00012008518917931035,1.828195252637394,0.07925941320759063,17117.091697865355
15021,GeIn0.6Sb5.4Te10,500,0.0001175961835210689,0.5137067983813908,0.4665156910328077,33520.62602489545
288,Pb1.004Se1Cl0.008,500,-0.00010161841248674493,2.5440086880661843,0.2665455866237517,131333.42490618164
11014,Fe2.2V0.8Si,500,-4.9483744398131766e-05,9.861565196176008,0.04203268431002158,359552.41750983533
12526,Ti9Fe2Ru18B8,500,3.0531194472472925e-05,8.499635447716647,0.017434731062012113,298048.9085197507
179,Pb0.95Sr0.04Na0.01Se1,500,8.15382336827101e-05,1.908639556851769,0.2307877731439801,110265.2492668184
12525,Ti9Mn2Ru18B8,500,3.903614064351053e-05,8.067422579242448,0.040233822025405784,386636.1486679971
10138,MnSi1.73Al0.0025,500,0.0001720716401594636,2.7642614963536616,0.20754089977258613,38752.008673764685
15072,CaB6:SrB6=25:75,500,-0.0001089987826039848,14.97048113713966,0.08046773050625469,175652.2301067977
12527,Ti9Co2Ru18B8,500,2.9466777694513976e-05,7.597309273753329,0.0204996982574956,320320.11215880496
12529,Ti9Cu2Ru18B8,500,3.5044038301791235e-05,9.581353464218084,0.029772629285633564,444944.5223787401
16422,Ag0.5In0.425Pb5Sn4Te10,500,0.00019239886080847445,0.9640326347263736,0.5104954806601214,24450.131823618285
15488,MnSi1.73,500,0.00016519657626517972,2.5550269451781653,0.24989822170788306,46887.989416820354
5990,YbCd0.8Zn1.2Sb2,500,9.347857887206212e-05,1.6608179533887457,0.3322721890570011,109225.67797327813
12528,Ti9Ni2Ru18B8,500,3.086938528568177e-05,8.870935342891553,0.019649468048524327,336571.07032257016
17231,Zn4Sb3,500,0.00015161423484160734,1.0440077666269942,0.5024115146225809,48895.8672454019
4616,La0.3Co3.68Ni0.32Sb11.84Te0.16,500,-0.00016441020935774453,1.9062067494381167,0.6303079091325033,79763.5888859903
15022,Ag3.4Mo9Se11,500,9.7235429515258e-05,1.2479510191042338,0.20382825136732155,45130.10559750752
5989,YbCdZnSb2,500,0.00011286697965679563,1.6760404000908775,0.4518089893364388,104451.1323898106
15071,CaB6:SrB6=50:50,500,-9.799414211247288e-05,11.979963015554345,0.09821504147599863,216644.7759997198
6531,Ti1.031S2,500,-5.7533350392700795e-05,2.4124142304189684,0.08024032677950238,120700.7322991784
5223,In0.3Co4Sb12,500,-0.00018914664807721836,3.050739745754316,0.6496548940356657,111244.46363668471
17252,Zn4.24Sb3,500,0.00017570133948316397,0.7217177288645864,0.7176780682684611,35709.080769960754
17251,Zn4.16Sb3,500,0.00017607399303410333,0.7125165693403891,0.6821381642569189,33876.281034718566
17253,Zn4.32Sb3,500,0.00017292974953107352,0.7443061748194263,0.719657386132883,37938.976953876016
5224,In0.3Co4Sb12,500,-0.00017117011658860043,3.001806158926801,0.6565775255169202,155246.20964751818
5988,YbCd1.2Zn0.8Sb2,500,0.00011930282584755171,1.5438173065313403,0.4530054041069062,83952.46878206191
160,Pb0.993Ga0.007Se1,500,-7.781897883865437e-05,2.230462221125188,0.20355026709127927,149942.75590285214
14243,RhSn1.5Te1.5,500,0.00012462847413593158,3.623559956949872,0.16740516592615556,72156.88935648452
12524,Ti9Cr2Ru18B8,500,3.2328943615714096e-05,8.102913264241055,0.021961857498574527,302677.1340843882
14244,IrSn1.5Te1.5,500,0.00017202144625204542,2.837232042469367,0.12862594331936575,21731.64177904304
327,Pb0.98Na0.01Te0.88S0.12,500,0.00020151676333602042,1.5401896619386126,0.5780743929190123,43849.593653133255
12523,Ti10Ru19B8,500,3.691397513583062e-05,10.934778457944685,0.032285851738412384,489598.5016521224
16423,Ag0.5In0.4Pb5Sn4Te10,500,0.00013980152030150219,1.3247240377764364,0.5006229528785688,62491.06077172184
10137,MnSi1.733,500,0.000167991640515186,2.2252948597119593,0.2322617254630326,36628.56174979132
15023,Ag3.8Mo9Se11,500,0.0001257476081933366,0.8262101791629227,0.3068004869515695,27704.886271523683
6770,PbS-ZnS,500,2.396389683714569e-05,1.4152479560947746,2.566518754570217e-09,0.012650045615187604
12413,NbCoSn0.96Sb0.04,500,-0.00010947766799414052,7.232416489500898,0.08728153492483398,109668.57348532717
14287,(BiSe)1.09TaSe2/TaSe2,500,-1.5621405669489366e-05,3.0534304267955665,0.006624584526795155,165781.6467033567
13521,NdOZnSb,500,0.00023419764965009366,1.1061118187276069,0.05015625298537955,1989.770595030592
387,Pb0.98Na0.005Te0.88S0.12,500,0.000261164531756731,1.0858881986001192,0.6881817386643371,21912.395664863056
10110,MnAl0.0063Ge0.045Si1.7487,500,0.00015447487405353136,2.4731907524139802,0.2187895933794139,45352.22213502316
14367,Ag2Te,500,-0.00012151549996035212,0.6644007727985488,0.5160039371511104,49973.973145526084
13400,Cu2Mn0.02Sn0.98Se3,500,8.258485629028406e-05,2.8540415879254133,0.14601667938286902,103477.06432501279
14286, (BiSe)1.09TaSe2/TaSe2,500,-8.777184782498626e-06,4.469772187403766,0.002884227736068697,334683.61438296677
14368,Ag2Te,500,0.0001900873523363692,0.4209611756614098,0.14049066252371945,3610.928683345417
14283,CuIn0.95Mn0.05Se2,500,0.00042091642340509963,2.2205105148495727,0.013045829152167076,319.1768361335421
10131,MnSi1.73,500,0.00016105920608204367,2.4079017795544586,0.13706448007032015,25446.17903146534
17288,Zn4Sb3,500,0.00016719679084574194,1.1107921786168102,0.4356279406435252,29729.473515473812
10982,ZrCoSn0.15Sb0.85,500,0.00016731818843321482,7.595290645381113,0.1785127947307491,90147.16313875727
14284,CuIn0.9Mn0.1Se2,500,0.0004780642573864411,2.275983643953313,0.01190518530089047,231.8455423952343
12416,NbCoSn0.9Sb0.1,500,-0.00010356656605860725,6.110209110627494,0.15185436914040334,165528.00015302867
4516,Co0.8Ni0.2Sb3,500,-6.384322558117484e-05,5.612820051170392,0.05403443748876355,142330.15284324708
9487,(CoGe2)0.2(GeTe)17Sb2Te3,500,0.00020678365144757382,1.4379451759096105,1.0117965408999483,61965.532473435705
14285,Cu0.9In0.9Mn0.2Se2,500,0.0005450563074690685,1.9676582806258311,0.010817557060728166,143.50504849148217
166,Pb1Se0.88S0.12Bi0.003,500,-0.00011425028098926392,2.072854214004169,0.2531964354103167,80415.87428471142
9606,Mg2Si0.6Sn0.4,500,-0.00014342547757062468,3.0549208566444417,0.4953039349649645,133366.04455826018
12417,Nb0.99Ti0.01CoSn,500,-0.00013842917842926577,5.472078402560606,0.048502604594429816,25456.742228909457
14292,Cu3Sb0.98Al0.02Se4,500,0.0003150622639360584,1.3861093531749455,0.23248879457847105,5795.1241076152455
14293,Cu3Sb0.97Al0.03Se4,500,0.00021408865734560126,1.3714555140547409,0.3455466869969992,17904.36079540709
4514,Co0.99Ni0.01Sb3,500,-0.00013167536082784077,5.381964642749064,0.061052450412676464,44792.42310685288
10980,ZrCoSn0.05Sb0.95,500,0.00019524540043322448,8.842082696525026,0.09831461105305103,44249.416012988644
9489,(GeTe)17Sb2Te3,500,0.00019477763525255857,1.4377673531114012,0.9173644832210504,67138.79492116968
16442, (Zn0.99Cd0.01)4Sb3 ,500,0.00017437105156928854,0.691389723709474,0.8028943380890478,35931.577252187126
10981,ZrCoSn0.1b0.9,500,0.0002032439928655629,7.993301943631913,0.17396573881948346,63422.061444503655
10262,Hf0.5Zr0.5NiSn0.98Sb0.02,500,-0.00012277613435770726,4.238787637619389,0.34841729257897763,182325.53832144718
303,Pb0.98Na0.015Te0.88S0.12,500,0.00018972252801805324,1.633979720090863,0.6073150667423636,55138.24102105293
10129,MnAl0.0027Si1.7973,500,0.00017941956101405978,2.5393869130665307,0.2375457258051229,37477.14627052941
14291,Cu3Sb0.99Al0.01Se4,500,0.00033052206839613037,1.3129142853679456,0.2381128756273727,4921.914823876129
13522,Nd0.99Sr0.01OZnSb,500,0.00017243916791698122,1.1982715416726089,0.07434228763690241,4963.90444345956
17287,Zn4Sb3,500,0.00015446243904183388,1.1818064657266971,0.4176664939206673,38809.80326002253
14268,Cu2.1Zn0.9Sn0.95In0.05Se4,500,0.00010223384481337946,2.438641037882207,0.1058080213397331,45077.897697838875
15032,In4Se2.85Te0.15,500,-0.0002595763240030524,0.6254989636602587,0.1703769331767803,2818.888477940177
297,Pb1.005Se1,500,-0.00013494762758793115,2.206418963861177,0.3342914510005187,81005.17034102777
14269,Cu2.1Zn0.9Sn0.925In0.075Se4,500,8.053822941595381e-05,2.502868798930851,0.0894841549279824,71861.568126059
13524,Nd0.97Sr0.03OZnSb,500,0.00014220072589396819,1.7025515914412743,0.06911431512603611,9488.507279410194
12414,NbCoSn0.94Sb0.06,500,-0.00011009003075232061,6.3988344298068895,0.13846065248535705,145367.25141418594
9486,(CoGe2)0.2(GeTe)17Sb2Te3,500,0.00022310458015815937,1.4827408215234097,0.9513271457270084,58103.31855974305
14270,Cu2.1Zn0.9Sn0.9In0.1Se4,500,8.548275443887295e-05,2.4700242953104627,0.08392037753587411,55919.100254996025
14267,Cu2.1Zn0.9SnSe4,500,8.937512711610432e-05,2.241648118136994,0.1147785092614526,61759.798348094715
15031,In4Se3,500,-0.0002649145286241786,0.6689019660606818,0.14837925313817665,2426.0836162090163
10133,MnSi1.74,500,0.00013607691671885794,2.6167682206352403,0.15032246698055748,42486.42864338599
16446,Zn4Sb3,500,0.00013840782920670455,1.1548973733879675,0.47531803278460205,57341.22642462616
10261,Hf0.6Zr0.4NiSn0.98Sb0.02,500,-0.0001323627730477077,4.4578538099115494,0.4042131219047932,200013.71258159948
12418,Nb0.99Ti0.01CoSn0.98Sb0.02,500,-0.00014847876226849855,5.975711912472393,0.10897964980258686,55192.59780986632
12415,NbCoSn0.92Sb0.08,500,-0.0001005685454310706,6.541599134316567,0.12356474798964764,152658.9137698709
17281,Zn4Sb3,500,0.0001405763581049186,0.8485293149300988,0.6170505009295078,46951.83495468865
17282,Zn4Sb3,500,0.00015862780722887218,0.7573740991840883,0.6500555139114479,37429.371521002264
5985,Yb14MnSb11,500,8.578990987943105e-05,0.8660043327706324,0.14658364652762618,36723.06352650518
16445,(Zn0.985Cd0.015)4Sb3,500,0.00017056224774966618,0.6463310747117468,0.7741622062706365,33991.2753878194
10109,MnSi1.69834Ge0.03466,500,0.00015810639230390446,2.388546415341404,0.17563349388105556,33563.880305384795
13523,Nd0.98Sr0.02OZnSb,500,0.00016619267344763372,1.3043873324230009,0.07706185811779702,6063.843628978698
10101,MnAl0.0063Ge0.063Si1.7307,500,0.00014124459816421817,2.4916642259857964,0.18484325954461184,46172.079632823115
10161,MnSi1.73Cr0.01,500,0.00017314609038623354,2.312224737044729,0.1793966017071541,27672.53028365056
13385,Cu2MgSnSe4,500,0.00030379076665560463,1.5408922835426584,0.0938922461877852,2557.3928913172736
14057,AgPb18SbSe19.73Cl0.27,500,-0.00016326683036632655,1.1550207253954965,0.5344785899124802,41937.72895737131
6330,YbZn1.8Mn0.2Sb2,500,0.00010496214025340091,1.8013818625675122,0.1265897342763573,36676.863879288256
4477,Cey(Fe3.8Ru0.2)4Sb12,500,0.00011193401922215965,2.576945397840149,0.4602964214608077,182489.4723739746
4709,Ca0.20Co4Sb12.46,500,-0.00015086428475649408,3.8366910224424298,0.151017536250467,42712.66639900902
4478,Cey(Fe3.7Ru0.3)4Sb12,500,0.00011038861019084418,2.449912150538605,0.4688221247202007,178434.48412923014
16406,FeSb2Te0.85Sn0.15,500,0.00011580752072573427,2.380481434613672,0.2441561797566533,82114.13509985816
14056,AgPb18SbSe19.856Cl0.144,500,-0.00015735446168208225,1.1673502264714155,0.5336900332265581,42288.6948793088
12824,In3.9Ga0.1Se2.95,500,-0.0003776809371954886,0.93765035742374,0.1721421604522928,1819.5810318106192
17036,Zn4Sb3,500,0.00017741727305882124,0.6722719338431186,0.8855305764342166,36046.447755623485
14683,Cu2CdSnSe4,500,0.00034751353154399846,1.6672469788369448,0.04579008093762405,1137.5681169137358
16511,Zn3.675In0.125Sb3,500,0.00018687133287659743,0.7932298854896516,0.7420586110391525,32448.668715064552
6331,YbZn1.7Mn0.3Sb2,500,0.000129408382851242,1.901594802646048,0.1691683401467465,34652.13073578723
492,Fe0.98Mn0.02Si2,500,0.00012199729685035608,6.473265932521365,0.011399376199950715,9915.94513484308
12844,Yb14MnSn11,500,8.299803515125678e-05,0.8341188274367735,0.13463133264805782,36407.93757425053
1869,Al27.5Mn29W3Si39.5,500,-0.00012806777826629044,3.1061444386530326,0.15553559187814664,58911.7166569071
6326,YbZn2Sb2,500,8.753732810600878e-05,2.532563626574019,0.20371033821604867,115419.36436965989
1870,Al27.5Mn27.5Ta2.5Fe3Si39.5,500,-9.641315668457215e-05,3.715421035118212,0.08733032150338113,69812.06516033894
495,Fe0.98Co0.02Si2-SiC-Cu2mass%,500,-0.0002540387154268584,4.567461419318691,0.039421785522874765,5580.091984037771
14060,Mg0.9925Na0.0075Ag0.97Sb0.99,500,0.00020462074688291817,0.9029774879704376,1.2244903168142258,52362.817923775096
16405,FeSb2Te0.9Sn0.1,500,0.00013097890281608702,2.4889364538810317,0.21827730119716404,56803.68750916713
494,Fe0.98Co0.02Si2-SiC,500,-0.00036866565772234085,3.97176454697668,0.07482773168853228,4373.314433332678
1868,Al27.5Mn31Cr2Si39.5,500,-0.000117429806468442,5.133647909505671,0.08030504366423794,59791.87977973245
493,Fe0.98Co0.02Si2,500,-0.00017297098348706126,5.09255324016937,0.01698314165564292,5781.454288823437
6329,YbZn1.85Mn0.15Sb2,500,0.0001320131428846025,1.9402706049737144,0.3132646772909913,61699.403492805104
14058,MgAg0.97Sb0.99,500,0.00022674654647728023,0.8781907336119448,1.197160129030426,40914.45923803689
12289,Zr0.7Ti0.3NiSn,500,-0.00023632463708854833,6.327169489523294,0.2560682664226325,53693.14453891504
14059,Mg0.995Na0.005Ag0.97Sb0.99,500,0.00021342517045709136,0.8937329439776428,1.2203083191038893,47267.70002236892
6327,YbZn1.95Mn0.05Sb2,500,0.00012272428210506102,1.974452921866228,0.2845672846608084,65103.56935152436
6328,YbZn1.9Mn0.1Sb2,500,0.00010727983648895257,2.004867072392594,0.2649134287317487,79369.87136732733
14054,AgPb18SbSe19.964Cl0.036,500,-0.0001962767490651419,0.9846879343441816,0.5530276430743057,24450.56693889789
6338,Yb0.8Ca0.2Cd2Sb2,500,0.00018658738968129463,1.1998242423505918,0.4238797388929067,26899.15469172461
6339,Yb1Cd2Sb2,500,0.00016893377962987145,1.4203107545594689,0.42024830248157896,36638.75028283759
10897,Fe2VTa0.12Al0.88,500,-9.038383340878196e-05,10.58639138221119,0.13688749590212165,379171.29657452623
10904,(Sr0.9La0.1)2ErRuO6,500,-0.00016364795090157222,0.8588923921991191,3.553409601873188e-05,2.2792548085100397
6335,Yb0.4Ca0.6Cd2Sb2,500,0.00022593208661330776,1.0283126708115415,0.4823066387689824,17962.732126636212
6320,Ca16Sb11,500,6.0090276411399775e-06,1.8375472652580949,1.13722442234289e-05,1157.4607923921662
6336,Yb0.5Ca0.5Cd2Sb2,500,0.0002052747808936705,0.9826178771868596,0.5221574766545725,22391.025140095742
10169,Fe0.94Co0.06Si2.00,500,-0.00016519812515403484,3.7826411608101176,0.0827398458362779,19673.643080889662
10098,Mn0.65r0.2Ru0.15Si1.74,500,0.0001405472146640396,2.402941460036754,0.16748831367887768,40748.64856316616
6337,Yb0.6Ca0.4Cd2Sb2,500,0.00020935265434782332,1.0323114750251503,0.5717777268643699,24725.00921620517
6340,Yb14MnSb11,500,8.23858272252807e-05,1.0317276019528796,0.1231582899475755,36524.49163909885
17045,PbTe:Sb (0.3 at.%),500,-0.00030069133771192815,4.439266683945123,0.8911009508944274,79344.9409632444
17047,Pb18Ag1Sb1Te20,500,-0.0004911770275722516,0.3631882122662596,0.7669620860578593,2377.424834897994
16495,(Mn0.85Cr0.15)Sir,500,0.00013069019480898902,2.4146090831480835,0.1943594479543068,55637.854870590265
17044,PbTe,500,-0.0002542412972242487,1.7584240694088935,0.4659964849076622,23008.57283733664
16496,(Mn0.8Cr0.2)Sir,500,0.00012280208514990642,2.453322474964156,0.2070073656669122,64923.14531393952
491,Fe0.98Mn0.02Si2,500,0.00011374772906859598,5.8073326826466465,0.009694994274738472,8702.996099100377
6012,BaGa2Sb2,500,0.0003353247551876118,1.019974405725557,0.06841132150047535,1152.8150075668445
10159,MnSl1.719136Ge0.013864,500,0.00015695995043176397,2.0678576664854176,0.18242813083630555,30624.199169716518
4480,Cey(Fe3.5Ru0.5)4Sb12,500,9.412013423608828e-05,2.745133795321284,0.3088785701372955,185309.71310965932
16407,FeSb2Te0.8Sn0.2,500,8.677718798860863e-05,2.189787063506005,0.1808640232494064,95920.81287716939
6332,YbZn1.6Mn0.4Sb2,500,0.00011415936960470648,1.887549635783696,0.14629561417542128,42556.94815526853
17038,Zn4Sb3,500,0.00018293604801179807,0.7356515513191035,0.879209229293587,37642.50903288832
13388,Cu2.1Mg0.9SnSe4,500,0.00011824053839902106,1.5735349224725534,0.18434608932033555,34677.558963524985
12823,In3.9Zn0.1Se2.95,500,-0.0004560215097549126,0.9336485510925022,0.141572911541267,1104.9445895412273
17037,Zn4Sb3,500,0.00017903449613867692,0.7112761154624097,0.8867146405800631,37185.4868530449
2376,Ba8Cu4.5Si6Ge35.5,500,-0.00025124259470282,0.4303214014550605,0.0495241313118,751.5732022822315
4479,Cey(Fe3.6Ru0.4)4Sb12,500,0.0001053690302204914,2.568801517930863,0.3714353396939963,182997.82774408066
16402,NaCoO2,500,0.00011079132121974456,4.6917877278171805,0.06971762561471928,54975.825727741125
6333,Ca1Cd2Sb2,500,0.00022788846868667642,0.7723634426137971,0.015450581160356287,457.1105498561353
9450,Pb3Bi2S6,500,-0.00010141506813520156,0.7632297319194843,0.10568358700683222,15221.97434053435
9459,PbBi2S4,500,-0.00021975270855826047,0.5813429578384697,0.2116959471033451,5313.77635714036
12288,Zr0.7Ti0.3NiSn ,500,-0.00022895189282058807,7.094339118465446,0.14741206367968607,35358.452416592576
10160,MnSi1.705272Ge0.027728,500,0.00015885587921545452,2.359086700688452,0.18296629447675988,34208.844537670266
14470,CuGa0.99Zn0.01Te2,500,0.0001413742483234788,4.593110656253564,0.06655812020988472,32795.96301142551
12861,Cd0.999Ag0.001Sb,500,0.0002516907754818874,0.8458970584339172,0.9666876377870764,25626.371458497422
12891,Ca5In0.98Zn0.02Sb6,500,0.00026369718147983606,0.8814069329851798,0.23219264815199306,5232.98496173228
16510,Zn3.725In0.075Sb3,500,0.00019280982828176731,0.6621970975148845,0.8770759521861713,28134.230560839704
5928,Bi0.4Sb1.6Te3,500,0.00018442084820108177,1.1127733686843408,0.3926749769140548,25695.076540056973
12862,Cd0.997Ag0.003Sb,500,0.0002478789392820295,0.8864226480440726,1.0210922887103764,29336.339869603056
12863,Cd0.995Ag0.005Sb,500,0.00024726082670125835,0.8650467538847576,1.1212874839438642,31149.236344231016
1839,MnGe0.035Si1.715,500,0.00015589997757345058,2.204296491147046,0.3197874751714963,58005.523370719144
14480,AgSn4SbTe6,500,0.00012128957060687928,1.7617083158141933,0.5659211790958467,137500.57321012634
16403,FeSb2Te,500,0.0001876855455562953,2.6458614173244603,0.13605782779286182,19511.41151637505
16508,Zn3.725In0.025Sb3,500,0.0001622858662965953,0.7529140810906256,0.4678693200939381,22582.33878899514