sampleid,composition,Temperature,Seebeck coefficient,Thermal conductivity,ZT,Electrical conductivity
6274,YbCdMnSb2,500,7.097292433289004e-05,1.0883465412544102,0.013913043290868718,5010.563268153787
12978,Ni0.2Mo2.8Ni0.2Sb7,500,3.7676098030295385e-05,6.792845623992847,0.05534599806259992,510560.55394506565
16388,Ca2.8Yb0.2Co4O9,500,0.0001423654433469536,1.0619461094179483,0.07441710503176556,7440.007807479013
16925,In0.02Zn4Sb3,500,0.0001701673624618471,0.8233779302472372,0.4569745821703487,26015.81571079401
16878,Zn4Sb3,500,0.00015112405857131342,1.0448193279947522,0.5129618443430739,46846.18569792021
16924,Zn4Sb3,500,0.00017333221084273864,0.5513177828631997,0.6597479072081757,23823.24129422236
6273,YbCd1.6Mn0.4Sb2,500,0.00022690197296145156,0.7276467160294734,0.43785072843548895,11710.137010924864
6272,YbCd1.9Mn0.1Sb2,500,0.0001841339879020636,0.7809911006761432,0.6054516857818912,24877.87673822268
16927,Ag0.02Zn4Sb3,500,0.00014429749605402467,1.1413854147823508,0.42678713117595257,46446.89153357708
525,MnSi1.74Al0.005,500,0.00018915760303622194,2.31662210368788,0.1934642852594591,25051.768539797642
10177,(FeSi2)0.85(TiB2)0.15,500,-0.00011240026382639086,6.3510397841828565,0.03329869866381719,33478.61083266397
16929,Ag6.52Sb6.52Ge36.96Te49.00Yb1.00,500,0.0001488295559568971,1.5819942039295247,0.8340591525907046,110020.4687212265
13018,ZrHf2Ni2.7Cu0.3Sb4,500,-0.00015655166360022544,2.3750004538176404,0.2489637213407166,46954.51934240631
13336,MgAg0.97Sb0.99,500,0.0002312475271036585,0.8362994424580257,1.262189708633824,39514.59657837877
13019,Hf3Ni2.7Cu0.3Sb4,500,-0.00012982943061551846,3.3731862943994853,0.21502445891513333,85634.06191456749
13017,Zr2HfNi2.7Cu0.3Sb4,500,-0.0001675120424882255,2.698936142206583,0.3957196072621557,74416.43817461617
10184,(FeSi2)0.745(TiB2)0.255,500,-2.6603886177192035e-05,8.596804266466233,0.004926834066581953,119686.40103974662
16879,Zn4Sb3,500,0.00015394577219098656,0.8314095928951065,0.6147040639918875,41877.36435026715
12974,Ni3GaSb,500,-1.1814110235040786e-05,16.992417794268462,0.005409691526839823,1247259.9639859416
14006,Cu2Se1.01,500,0.0001283370549395929,0.8952944318255613,0.5803284682036947,54689.56789412042
13950,Cu2Zn0.5Fe0.5GeSe4,500,0.00020056827367488932,1.5426349207861767,0.0757647381539781,5810.798391716308
12976,Mo3Sb7,500,3.449284793088333e-05,7.4306977596881465,0.03945831740155871,469000.7666152171
13015,Zr3Ni1.7Pt1.2Co0.1Sb4,500,0.000151192745811295,1.8987642861217024,0.3972074783411247,67386.10802957622
16881,Zn4Sb3,500,0.0001715386824391216,0.7116251702922383,0.691635119651167,31972.000141536948
6268,YbCd1.95Mn0.05Sb2,500,0.00017977143926923623,1.4104250379576289,0.4353425522874769,34623.27562744328
16880,Zn4Sb3,500,0.0001609369286746739,0.8102127125592047,0.6507787368413465,39142.87852986412
4721,Yb0.3Co4Sb12,500,-0.0001669708379037069,2.9077126172381913,0.7319430471868944,151285.10357271042
12975,Ni3InSb,500,-1.3137644231909084e-05,14.965147010551247,0.006690722407721032,1100154.658639068
14005,Cu2Se1.01,500,0.00013089512315358508,0.9829555613559496,0.5471967154186619,53855.937539462626
16928,Ag6.52Sb6.52Ge36.96Te50.00,500,0.0001316885558556595,1.5684839131982742,0.6754349316223511,112649.73705573744
16532,Zn4(Sb0.98Te0.02)3,500,0.00013784522357091985,0.7780467571566485,0.7264986777527667,52591.01265142048
13337,MgAg0.97Sb0.9925,500,0.0002194368569037844,0.8796885972529114,1.2670176599492275,46652.88624796844
14349,Cu2HgSnSe3.2Te0.8,500,0.00019718118157287294,0.4747627094142305,0.3661693340285356,8223.798872339983
14778,Mo2.55Fe0.45Sb7,500,5.022160091525122e-05,4.717278686935731,0.1059653172730008,341794.4961028396
14549,La3Te3.7Pb0.3,500,-5.259575391316356e-05,2.051802503654795,0.11610704009617635,152146.48473974643
15321,TiO1.83,500,-0.00011762955505771485,3.00526462352204,0.0619274117239783,23566.754084965716
13205,Yb13.47Sm0.53MnSb11,500,9.292733141378572e-05,0.7938738192590328,0.18943308385027607,29591.024401692852
1351,Si86.25Ge13.75P1.05,500,-0.00013234067058125477,4.316080626183839,0.2656527217542207,130932.40722421414
10215,(FeSi2)0.95(TiB2)0.05,500,-0.0001670245978545554,5.159586444437847,0.05008132343270888,18525.06822407612
10688,In4Se2.8,500,-0.0003049954386608293,0.8840837816512612,0.1975664610549383,3328.8874425883446
9425,(Mg2Si0.995Sb0.005)0.4(Mg2Sn)0.6,500,-0.00014967275612274317,2.4224527041104658,0.744545661957853,136721.8030766632
14780,Mo2.6Fe0.4Sb6.75Te0.25 ,500,5.458196532156574e-05,4.5959831266226905,0.12286435908092122,341375.7884160066
8188,FeSi2.5,500,0.00026691616866229915,11.29830337769591,0.009916945437487891,3145.3674406038867
13203,Yb14MnSb11,500,6.767455605520823e-05,1.1164002144453855,0.09684243244804093,46854.33260918615
15322,TiO1.90,500,-0.000230520762893968,3.2446022728012736,0.062442758503745976,7361.442618090767
13202,Yb13.45Pr0.55MnSb11,500,9.834221271894633e-05,0.9507274684600312,0.1803021263399653,35704.71115545351
12043,Zr0.98La0.02NiSn0.98Sb0.02,500,-0.0001368524284052503,7.451688133990659,0.3815804981123896,297915.73702990066
13269,Ca0.84Ce0.16Ag0.87Sb,500,4.341800937087561e-05,1.7234332218242092,0.07209958207121636,138938.27571083643
14548,La3Te3.8Pb0.2,500,-6.315036792420714e-05,1.5720483651860542,0.1283966151102806,84820.19199330996
10385,PtYSb,500,0.00018362329724637243,2.9015646171213283,0.21603647204159265,35740.375652194394
1352,Si83.75Ge16.25P1.35,500,-0.0001438568740686797,3.946438629667529,0.2985286237538392,113857.09265137569
14779,Mo2.6Fe0.4Sb7,500,4.764350571972537e-05,5.06045850023938,0.0974530984021612,394964.97001232294
13204,Yb13.810.19MnSb11,500,9.113767630522496e-05,1.0218488925028264,0.14673369067718325,37052.99138005518
12042,ZrNiSn,500,-0.0001704651986618105,8.705679839730678,0.06568256925441125,31594.52845342123
5870,Yb14Mn0.2Al0.8Sb11,500,0.00012278037708222389,0.7141878177145325,0.2973565527076232,23987.54589438193
8184,FeSi1.9,500,0.0001855982346265656,6.0783087852014335,0.011922646453551898,4207.631895125425
5130,Co0.98Mn0.02Sb3,500,0.00017622308075648972,1.7126182741912892,0.16279119623966906,16841.60582091024
13266,Ca0.84Ce0.16Ag0.9Sb,500,9.148100383643483e-05,0.7361080886453732,0.2819508438698756,48564.16965429968
13217,Cu3Sb0.98Bi0.02Se4,500,0.0003661025472083628,1.1839736519584974,0.5424623823638606,9219.772895547574
14776,Mo2.7Fe0.3Sb7,500,4.052359638183842e-05,5.509194790359945,0.07008588550030898,414169.06098167686
10229,Fe0.95Co0.05Si2,500,-0.00018095856401815545,3.249858682018975,0.0586477976959181,11640.935901415864
5129,Co0.99Mn0.01Sb3,500,0.00017298500472210824,2.051312709298296,0.15477789028361366,19690.315743388932
14775,Mo2.8Fe0.2Sb7,500,3.84430810582932e-05,5.838604813494773,0.06317258297011995,455642.9321906925
10216,FeSi2,500,-0.00018964759808852958,4.492931021465441,0.053206012244797096,13293.084438654663
13215,Cu3Sb0.99Bi0.01Se4,500,0.0003612124679121169,1.2404362419627222,0.42521616512896665,6499.404322878785
14550,La3Te3.6Pb0.4,500,-5.198310270094557e-05,2.8544464410237063,0.08974408418785401,161884.81827316608
13751,Sn0.067Sb0.667Te0.266,500,4.443287777417135e-05,8.108106770285222,0.018412830085774552,155043.38249226875
5026,Sn0.3Co3FeSb12,500,0.00012894073960489165,1.4653185706662917,0.2200070893911158,35645.12726211944
14777,Mo2.6Fe0.4Sb7,500,4.702371297964005e-05,5.036196005247716,0.09529198896241572,386930.1009173844
5901,Co3FeSb12,500,8.858444451426537e-05,2.982875844824747,0.1194932828068222,88269.69316795394
15320,TiO1.77,500,-7.041473762485034e-05,3.2958608246488965,0.049501056353465,57857.843955784025
13267,Ca0.84Ce0.16Ag0.89Sb,500,1.7226496464896396e-05,3.010353913559075,0.010841222847215087,216918.80735231924
13218,Cu3Sb0.97Bi0.03Se4,500,0.00031984194479815694,1.240075698631426,0.19860679635350145,4042.728432335111
13748,Cu2Se,500,9.699812912429351e-05,1.6673292923527696,0.299986141382078,88474.69544599508
13214,Cu3SbSe4,500,0.000332716199461981,1.2658730651879289,0.1338197235840063,2684.36496889148
5871,Yb14Mn0.05Al0.95Sb11,500,0.00015502950261833326,0.5287916089847093,0.2941425183574118,11803.066137383257
1311,BiTe,500,-0.00012689705696673596,1.396506457322042,0.5380200622211311,91182.89357462898
16710,AgSbTe2,500,0.00023422571774131133,0.7439948555631589,0.8096386620785445,22747.369041765956
16711,Ag(Sb0.97Bi0.03)Te2,500,0.0002946075434746774,0.5813508735225115,0.5425439396937696,7354.715218507679
13188,Eu5In1.9Zn0.1Sb6,500,0.00017046494490820526,0.9477457250134196,0.1978097287174172,11223.707968964363
13796,Yb0.086La0.34Te0.574,500,-0.00022567843494454136,0.5919001279440539,0.20211007554311872,4843.861960257129
16712,Ag(Sb0.95Bi0.05)Te2,500,0.00026716315209051363,0.5258804229489695,0.8870151146023385,12897.146015475877
13189,Eu5In1.8Zn0.2Sb6,500,0.00016076432590896123,1.0238347206168394,0.18706323481324985,12595.000342081943
1312,BiTe,500,-0.00013875993993071764,1.4629566683337831,0.6528784848141598,97964.37724416233
13793,Yb0.029La0.392Te0.578,500,-0.00010906204521415076,1.308508287690994,0.19352257051611613,44265.322808745615
10231,FeAl0.06Si1.95,500,0.00020464603368536359,6.722730364527442,0.037811168841199935,12139.173750263222
16272,Ge3MnSb2Te7,500,0.00010226274190950401,1.4180714956018592,0.1415915607021806,32197.445331436706
12046,Zr0.98Ce0.02NiSn,500,-0.00014175196013391047,6.065268666973712,0.07790474683762083,40500.04264735154
16271,Ge3MnSb2Te7,500,0.000161229902858252,0.8771124355471223,0.3158919679923318,19027.655156375036
13794,Yb0.044La0.377Te0.579,500,-0.00015030924045987348,0.9017744923968036,0.2766292707743126,20401.022210955816
13795,Yb0.079La0.348Te0.574,500,-0.00017029069365274443,0.7527116687407047,0.2720502409666126,12965.650764616887
5910,Ba0.3Ir4Sb12,500,-0.00015685237755383528,3.2245977886739743,0.2414776833996229,55588.31439263769
13187,Eu5In1.95Zn0.05Sb6,500,0.00018691028467854618,0.938361055588302,0.18078001860145854,8378.515786108675
12047,Zr0.98La0.02NiSn0.98Bi0.02,500,-0.0001950891083901232,5.507976242864722,0.17471613154114632,43597.52587239226
16713,Ag(Sb0.93Bi0.07)Te2,500,0.00029594080506631636,0.6579645283122603,0.4890055265637368,8107.113559705202
16265,Ir2Ru31.4xGa66.6,500,-0.00014547186087865695,3.6355266316467367,0.1927073774955419,65208.27080436493
13186,Eu5In1.975Zn0.025Sb6,500,0.00020594580375500731,0.9182826715133188,0.1294540658823623,5568.887937129415
13792,Yb0.02La0.399Te0.584,500,-0.00010040808190173011,1.3440037572877273,0.16594698861715218,52842.73139514108
14733,Cu2Se,500,0.00013297905329206743,0.91141242328982,0.4639920293899249,41002.828793139786
16714,Ag(Sb0.9Bi0.1)Te2,500,0.0002196988062052344,0.8411921490522848,0.19554825832096345,7241.029590213676
16264,IrRu33.4xGa66.6,500,-0.00016448502331979065,4.419486836659742,0.12786467132802173,41366.476103248235
13185,Eu5In2Sb6,500,0.00017524877647886168,0.9230135804015576,0.032435657020123465,2079.095922010583
13272,Zn4Sb3 ,500,0.0001335220752000107,0.6837269956636339,0.5707831147930972,43465.954608971435
16263,Ir0.5Ru32.9xGa66.6,500,-0.00016580686285819722,4.3392528043555405,0.07833077829965646,23494.730469116894
16266,Ir3Ru30.4xGa66.6,500,-0.00014199949533586653,3.6839996176772103,0.24596680982682,89238.86045627338
16273,Ge3MnSb2Te7,500,0.00010319870557816093,1.4094331236191135,0.14917864698784106,31837.417442362148
10213,Fe0.94Co0.06Si2.00,500,-0.0001729494278925984,3.686798651369249,0.0849410562225192,18268.86081898742
10388,NaxCoO2,500,0.00014110914922477072,1.4355779257637258,7.001430090488817e-09,0.0010095624230344073
13199, Yb13.82Pr0.18MnSb11,500,9.67806203058396e-05,1.071449868759019,0.17995768840445142,40841.62882756775
14782,Mo2.6Fe0.4Sb6.25Te0.75,500,6.252421898062728e-05,4.19420898192492,0.13163328482137224,246002.75446309173
5869,Yb14Mn0.6Al0.4Sb11,500,0.00010056621625076084,0.8293586998509341,0.2233047100986925,34844.72955925098
14547,La3Te3.9Pb0.1,500,-6.0890483711439096e-05,1.576523103222062,0.0916062250712815,78360.70334778694
13200,Yb13.66Pr0.34MnSb11,500,9.806846161806376e-05,1.0190303337268347,0.1816580235528732,35656.01084486493
10230,(FeSi2)0.875(TiB2)0.125,500,-0.00014059188928130378,6.069096161677866,0.04419869108385673,27142.065141689854
14781,Mo2.6Fe0.4Sb6.5Te0.5,500,5.9212688025211485e-05,4.61860109184956,0.1286688894761103,306871.7852271229
12045,Zr0.98Ce0.02NiSn0.98Bi0.02,500,-0.00019561525750853484,5.497447032154679,0.1624172828786138,39390.47738702075
5132,Co0.95Mn0.05Sb3,500,0.00016501976160284917,3.370404305973912,0.11229696348570917,26398.729520444303
16274,Ge3MnSb2Te7,500,9.894701188029879e-05,1.537519103731636,0.13906583307585546,37549.5015227728
14783,Mo2.6Fe0.4Sb6Te ,500,7.069134361048325e-05,4.923219907243998,0.11002876665619807,211324.1201550289
5909,Ba0.1Ir4Sb12,500,-0.00018694816142785832,4.216987452858627,0.13553408836241515,28143.649111568244
12044,Zr0.98Ce0.02NiSn0.98Sb0.02,500,-0.00011000334405347104,5.2851622597531644,0.21915535856839255,198919.78788859016
16275,AgSn4SbTe6,500,0.00010932971866118564,1.9152425886854616,0.4813336721085549,151187.76273090852
5868,Yb14Mn0.4Al0.6Sb11,500,0.00010393685084887916,0.8169429965418835,0.2280488926501495,30556.078936726408
16622,Zn4Sb3,500,0.0001663558500507829,0.6757023885530156,7.691066035861745e-07,0.03755742722489045
16337,GeBi5.7In0.3Te10,500,-9.122487441419191e-05,1.0638021720095343,0.09215133982447588,27298.354695799808
1344,Si0.8Ge0.2B0.016 ,500,0.0001808024566162417,2.5478901905259823,0.2465677850577277,38436.017474953034
13231,Cu2.03Sn0.92Se2.98,500,0.0002512683619978707,2.812691222820225,0.17853117354794973,12798.395343718828
1345,Si0.8Ge0.2B0.016 (CrSi2)0.091,500,0.00026458848279432064,2.844301747089492,0.2742923609442991,22288.328725478856
16342,Ge2Sn2SbTe5,500,0.00011957416028706955,1.4789983749277018,0.3270386043041508,67658.44836649227
12034,Hf0.25Zr0.25Ti0.5NiSn0.998Sb0.002 ,500,-0.00020331136623597863,2.476154957781475,0.5738508303930809,63907.500513185725
10226,,500,-0.00016989281027517995,3.570059596405509,0.08113782260063235,17774.720326965733
1342,Si80Ge18Sb2,500,-0.00035055820445073905,2.8617307417254434,0.2150678889358471,8051.018005561842
16631,(Zn4Sb3)0.9In0.1,500,0.00020482920577930406,1.7387631781250468,0.23820087932805703,17743.940294408072
5116,Co0.925Ni0.075Sb3,500,-0.00011375398827332841,6.233729027293425,0.05870638173130512,48700.68849005668
13706,GeSb6Te10,500,6.438769712665034e-05,1.7603641194740496,0.1731452765307257,126691.2000134246
8185,FeSi2.0,500,0.0002753452467391109,6.847151644181851,0.020165605319076373,3642.470452788114
16632,(Zn4Sb3)0.85In0.15,500,0.00019727322171530744,1.6430297427446598,0.1810232792562971,13804.050877568885
16630,(Zn4Sb3)0.95In0.05,500,0.00017200422436682638,1.8197653176012487,0.1857880044682051,20966.06744722709
5114,Co0.975Ni0.025Sb3,500,-0.00014795896724095067,6.317162390887297,0.04482053584516234,23420.4938405609
16629,Zn4Sb3,500,0.00015243104966438317,2.159466815294449,0.1765195232416759,28686.641018633836
5025,Sn0.2Co3FeSb12,500,0.00011900509559258149,1.638534774879146,0.1854577182090452,39171.373628192
13682,Tl8.075Pb1.925Te6,500,0.000109644842849875,0.8201863903812209,0.5077809696010247,59708.88297819794
13244,In4Pb0.01Sn0.03Se2.8,500,-0.0002542396120721277,0.7864402921735153,0.6225871801998246,12653.181538559751
16340,Ge3SnSbTe5,500,0.0001331051420193133,1.1983526432981009,0.5014129612460667,55879.037305335354
13245,In4Pb0.01Sn0.03Se2.7,500,-0.00024885327620428215,0.7653730733844479,0.5566878268311121,11748.36929224254
13687,Ag0.5Pb6Sn2Sb0.2Te10,500,0.00020222099780981,0.9679253249532996,0.8683596512087262,39988.754626777234
16341,Ge2.5Sn1.5SbTe5,500,0.00012437777012636145,1.453744254256106,0.2671878289169468,50216.81280109379
13248,In4Pb0.01Sn0.03Se2.5,500,-0.00024886307831195283,0.8549446694860208,0.4732107851716,11385.68509425421
1349,Si91.25Ge8.75P0.45,500,-0.0001579670889568843,5.548141536095455,0.212199831432008,94360.30411726488
1348,Si93.75Ge6.25P0.15,500,-0.0001912366301388445,6.260755612180847,0.2112374146699052,72324.49772486395
13247,In4Pb0.01Sn0.03Se2.6,500,-0.00024164823566960326,0.8978118302359657,0.4907967910472994,13391.25604250052
1347,Si0.8Ge0.2B0.016 (CrSi2)0.091,500,0.0002798441242670474,1.5649928210519102,0.12020529014544172,4804.337859077328
1350,Si88.75Ge11.25P0.75,500,-0.00014412673793939737,4.9201148927538805,0.2439246650096113,115550.50365503904
15215,In0.997Te,500,0.0001960358865326502,0.5002712490588852,0.7083145783032383,21786.21345940861
10227,FeAl0.10Si2,500,0.00023200811994835932,6.275879551404959,0.04656285458540591,10857.69963402392
10228,Fe0.95Cr0.05Si2,500,0.0003207651256799312,10.422433637402568,0.018715876006920464,3791.7090413138594
15216,In0.995Te,500,0.0002440582885341705,0.5783872696798279,0.32357777876117233,7137.967624886438
16339,Ge3.5Sn0.5SbTe5,500,0.00015898308747299574,1.3295212116507604,0.3118120849318272,32803.210879291524
5115,Co0.95Ni0.05Sb3,500,-0.00012857862661250466,6.794523552706703,0.047199414630463545,34649.28567539915
15217,InTe,500,0.0002680131455877325,0.5733993647652521,0.168696907925748,2890.779296274919
1346,Si0.8Ge0.2B0.016 (CrSi2)0.091,500,0.000256457326914368,2.9187928770846203,0.21277373620653664,18885.177477637008
5897,CoSb3,500,0.000202823078546926,5.6365434486659165,0.06477168721435443,15883.655420354131
5113,CoSb3,500,8.22169153088422e-05,6.166343860733863,0.023322969429735697,34259.11061013671
16655,AgPb18SbTe20,500,-0.00028393430563024004,1.0419727303662512,0.5457815384137699,12901.458700328798
15208,Ag0.04PbTe,500,-0.00028832931115054655,1.487089994692662,0.4173368729884513,15687.383904825694
16658,AgPb18Sb2Te20,500,-0.00016600588021820377,1.1702415680036582,0.6427085307705496,43985.83819748279
16657,AgPb18Sb1.5Te20,500,-0.00014006691357827978,1.2229848246219504,0.5003475928377665,61214.515736607726
8186,FeSi2.1,500,0.0002496578641087951,7.5167343596029115,0.011674477222445663,2815.828103251364
15209,(Ag0.01PbTe)0.945(Ag2Te)0.055,500,-0.0002756960540178144,1.0465029011090023,0.6259605910280774,16516.852561443506
16344,GeSn3SbTe5,500,0.00010695580050010867,1.56138543536969,0.2325680205568405,63486.50671749965
1338,Si80Ge18Sb2,500,-0.000357530089008557,4.6793453763680395,0.2284458195489178,15524.620779839019
4489,Cu3Sb1S4,500,0.0005149236741712039,1.9782493997211184,0.02907529830654299,414.47980739733663
16671,Ag0.84Sb1.15Cu0.01Te2.16,500,0.0002723085569881645,0.7803647169884833,0.9960742234591126,19837.611196349484
5878,Yb14Mn1.05Sb11,500,0.00012952427717020565,0.8566641309155988,0.18525321406913164,16483.660673880226
5128,CoSb3,500,0.00018178780362506245,2.9367309047411143,0.12059688521281026,20506.735784247994
16345,Ge0.5Sn3.5SbTe5,500,0.00010334112598493424,2.293161405265741,0.19662749349391706,84442.77252414731
8187,FeSi2.3,500,0.0002399474729786506,8.881068933279892,0.009358286134845744,2887.082508359657
14774,Mo2.9Fe0.1Sb7,500,3.4882029930098e-05,6.427843546215839,0.05075594083890116,466802.3723207915
10217,Fe0.98Co0.02Si2,500,-0.00025826220630159927,4.237533186978274,0.0481090544934455,6112.9130172197265
16670,Ag0.84Sb1.15Yb0.01Te2.16,500,0.0002633215385851448,0.8032640094475085,1.0873651269410023,23345.716487336234
13264,Cu2.3Zn0.7Ga0.12Sn0.88Se4,500,6.836850574515232e-05,2.1894083734990946,0.09744616436571528,81593.28108201762
13669,Ag2.0006Se,500,-7.403500228221938e-05,2.390956401889597,0.21474114943948355,184522.55422118254
10219,Fe0.95Cr0.05Si1.946Ge0.054,500,0.00020474925783783767,7.822191270804436,0.019848417941011682,7406.9540524457125
5023,Co3FeSb12,500,9.293451708119576e-05,2.8714077621275087,0.09395062114218157,54053.44532199406
14773,Mo3Sb7,500,2.9791625873345778e-05,6.371310420615608,0.040122601391579166,501720.8375269908
16668,AgSbTe2,500,0.0002897372806813457,0.72654655000698,1.3020447060237377,21296.41131680692
16669,Ag0.84Sb1.15Ce0.01Te2.16,500,0.00028189742303222115,0.8441591761761348,1.0709506239380664,23210.701024236932
10223,Fe0.9Fe0.95Co0.05Si1.958Ge0.0425Cr0.05Si1.946Ge0.054,500,-0.00015364620750532858,4.741375609149482,0.04529612818776076,18194.98693921916
16642,Zn4Sb2.98Te0.02,500,0.00013834719639376685,0.7646743324399183,0.5241599533459014,44978.48065590749