sampleid,composition,Temperature,Seebeck coefficient,Thermal conductivity,ZT,Electrical conductivity
11015,Fe2.08V0.92Si,550,-5.134635009862322e-05,10.940184680158117,0.05076826981844086,377721.2876836431
14244,IrSn1.5Te1.5,550,0.00017728965831433823,2.676652165389797,0.1540747625611368,20205.804770726296
11011,Fe3Si,550,-1.0757454042261991e-05,19.905775874940005,0.003861465271280967,991435.00216272
5223,In0.3Co4Sb12,550,-0.00019479111273782365,3.0122333627711684,0.7320075510373802,105811.34487342113
5224,In0.3Co4Sb12,550,-0.00017804516032897044,2.9790430091297218,0.7332399899856856,146872.7640048869
15487,Mg2Si,550,-0.00014473568082373818,4.247645896786163,0.3188988043696279,96594.1232566236
11025,NiZrSn0.98Sb0.02,550,-6.0035324952288e-05,13.796787464410677,0.042004689161319775,286081.3099233264
2056,Fe0.92Mn0.08Si2.5,550,0.0002436026249858685,9.179013869042977,0.015767838171892968,4434.4683850360025
5230,LaFe4Sb12,550,0.00011094225419711023,3.210562030939645,0.35858168712844873,162327.51597533887
11026,NiZrSn0.97Sb0.03,550,-6.281674730461148e-05,11.849519120540295,0.04274954338284205,246238.4122057409
11027,NiZrSn0.95Sb0.05,550,-5.164734155961129e-05,12.620546012469426,0.02850213507105886,235533.39621041587
5231,La0.9Fe3CoSb12,550,0.00013678565076757156,2.3452009670537546,0.4419003151613565,95547.05925300726
14223,Mg2ge0.98Bi0.02,550,-0.0002554084919512165,3.129735921813684,1.6643774074339963,145186.47176701846
2294,Ba24Ag2Ge98,550,-4.165028774440647e-05,2.5886576368502188,0.07470556188255545,180377.02298976426
2293,Ba24Ge100,550,-3.696015581670434e-05,3.461851975422756,0.038665208242833836,184148.35657001997
2291,Ba24Cu4Ge96,550,-4.7566251826483553e-05,2.7808917916917144,0.047807020655629,116035.1816091857
9358,Mg2Si0.975Sb0.025,550,-0.00011978735826513466,4.314756781862356,0.2536957987720665,122667.19869229438
14224,Mg2Ge0.98Sb0.02,550,-6.789978302333982e-05,8.386134951338839,0.1279538153359066,423170.73391183343
11024,NiZrSn0.99Sb0.01,550,-6.79602068938548e-05,13.928778387564336,0.04262088944891107,223199.8440851737
2290,Ba24Cu2Ge98,550,-4.105206017461768e-05,3.291938813481252,0.037766919808003736,153363.6079515231
14070,In4Se2.35,550,-0.00033928795248817136,0.8279864113343725,0.4008209383446292,5241.72270585002
13815,CuCr0.25In0.75Se2,550,0.0001452339595916714,0.9242665342398813,0.3003866324186667,20170.48671197241
5862,Ca0.75Yb0.25Zn2Sb2,550,0.00014823667106257795,1.3695815796544268,0.2925754502105117,30448.198212877494
13814,CuCr0.5In0.5Se2,550,0.00013646928744064297,0.9799903632887524,0.2593529929917965,23749.41104489563
13813,CuCr0.75In0.25Se2,550,0.00013624339931532373,0.9074679489386668,0.2888944375693844,25637.921749371417
16249,RuGa3,550,6.390365464592539e-05,2.506903076515832,0.0002958167793970409,330.17658099140203
13812,CuCrSe2,550,0.00014951422851123408,0.8203534901308493,0.2944331019832802,18512.862706856744
16250,OsGa3,550,-0.0004055500560636965,2.340945584271649,0.024078065696475172,623.1050809257057
5863,Ca0.5Yb0.5Zn2Sb2,550,0.00012940207929122154,1.2461151273949258,0.3334503103313599,36731.817236651324
14535,Ag3SbSeTe2,550,0.00015304435529538192,0.5944394444911526,0.05846823986340701,2697.9277655363244
5864,Ca0.25Yb0.75Zn2Sb2,550,0.00010829431308226429,1.5385243414164207,0.3292455608633973,66312.74389931238
14536,Cu0.1Ag2.9SbSeTe2,550,0.00017796859306102748,0.5918804302654913,0.13918813517290712,4729.190117293744
9694,Ga0.07SnBi1.93Te4,550,8.038661075870376e-05,1.3202460481582838,0.13603401293017706,50596.77468330909
16247,Ru0.85Fe0.15Al1.95Si0.05,550,-0.00012023044675969851,8.049922804694727,0.02565749550156921,30293.3566629735
13826,PbSe,550,-0.0002767637230648976,1.0627998910047942,0.3948306090724253,10286.829254428283
13823,Cu2.05Zn0.95GeSe4,550,0.0001227915146260172,1.4500139472639368,0.17219385469019693,24268.572095764237
5861,CaZn2Sb2,550,0.00016903800111997834,1.748401445931562,0.2931871464166633,29600.176623183266
13820,Cu2.15Zn0.85GeSe3.9,550,8.008093795598876e-05,0.4330621810291567,0.2689046210566094,27441.385499633067
2386,Ba8Cu4.5Si6Ge35.5,550,-7.274839322922192e-05,1.805804424300256,0.1536955441898793,96639.76799140226
16248,FeGa3,550,-0.00025825042074135697,2.8926884263117554,0.015008955231861881,1183.6065373225235
5140,Sr0.19Co3.98Ni0.02Sb12,550,-0.00016921573726785594,3.8557897515676935,0.4850915543107056,122250.09623419275
13816,CuInSe2,550,0.00016733643383347237,0.7695032099982468,0.38240676438210425,17606.83613347832
10394,NaxCoO2,550,0.00010112730891887256,1.841325191369956,2.4962854450059306e-09,0.0008171939616758882
13795,Yb0.079La0.348Te0.574,550,-0.00018026700575770384,0.7355068139780851,0.3224813327702824,11609.912788867017
16264,IrRu33.4xGa66.6,550,-0.00014536772565961148,4.678756519587084,0.1141439272349778,42073.161103997656
13792,Yb0.02La0.399Te0.584,550,-0.00011044888928140879,1.3238454054654774,0.2251091617587964,48077.99190245079
16265,Ir2Ru31.4xGa66.6,550,-0.0001354194904517498,3.8951586017183284,0.17612776339258532,64034.56824604335
16266,Ir3Ru30.4xGa66.6,550,-0.00013579746087306026,3.953016154634191,0.22994902654480345,85888.48462880153
13796,Yb0.086La0.34Te0.574,550,-0.00023402609472131914,0.5738868148462999,0.23177344586499016,4350.558711310589
13794,Yb0.044La0.377Te0.579,550,-0.000160304384345351,0.8805054432806796,0.3367101912019909,18236.12979572607
16271,Ge3MnSb2Te7,550,0.00016758236265076602,0.9213896980248956,0.3596304999045464,19135.244436404064
16272,Ge3MnSb2Te7,550,0.00011512006064635271,1.4200826667819872,0.18503725135278792,30306.50554500689
10392,NaxCoO2,550,9.793619751963405e-05,1.9369883619151835,3.171677454417737e-08,0.011645733856085165
5139,Sr0.22Co4Sb12,550,-0.00015629158671502463,4.064589123896754,0.4387858377796642,125185.3584510413
5865,YbZn2Sb2,550,7.716327799288852e-05,3.1891315654821373,0.20517394616798112,191409.8503205953
14537,Cu0.2Ag2.8SbSeTe2,550,0.0001998823327118092,0.5442283271264395,0.3778721009033379,9358.677104984956
5866,Yb14MnSb11,550,9.175500215382728e-05,0.8677157961276696,0.20992037306626504,35277.14748622813
9693,Ga0.05SnBi1.95Te4,550,8.39841921201202e-05,1.8068724292134903,0.15435241620909426,80475.87836239347
14538,Cu0.2Ag2.8SbSeTe2,550,0.00025244386849132127,0.4977380821714759,0.20216611141904786,2870.8921962730733
5867,Yb14Mn0.8Al0.2Sb11,550,0.00010032779377777691,0.9292372707564998,0.23653131158816265,37358.039737253726
14539,Cu0.2Ag2.8SbSeTe2,550,0.00019739461679491247,0.5301840887936682,0.1907745989305778,4719.695066840795
2385,Ba8Cu4.5Si6Ge35.5,550,-7.802086808492224e-05,1.0280134769376303,0.14942520804274295,43012.57198321516
16233,AgIn5Te8,550,0.00012035533959461782,0.8125888948602216,0.002025472982761334,197.1708878412764
2382,Ba8Cu4.5Si6Ge35.5,550,-7.853039631303455e-05,1.291656081011638,0.17937624633722926,67741.36764863571
5142,Sr0.21Co3.92Ni0.08Sb12,550,-0.00015209748865904066,3.90401959716368,0.5294094120517581,149239.56263884448
13861,Ge0.6Sn0.4Sb2Te4,550,6.0187136747833494e-05,1.7852861662542492,0.13240774621178825,118645.47430007928
13860,Ge1.3Sn0.7Sb2Te5,550,5.786852242337771e-05,1.9889977732861064,0.11096866002830072,119835.96080574812
13859,GeSnSb2Te5,550,5.733499938878164e-05,2.72945131267344,0.07492357943075141,113107.53957917706
13858,Tl8.85La1.15Te6,550,0.00015688335427527537,0.4607592726820624,0.16540541746880447,5758.438848914535
16232,AgIn5Te8,550,0.00011971126725640259,0.6904486504100816,0.00089619561056446,73.26269034313357
13877,Mn0.51Te0.49,550,0.0005132059165816872,1.0830041796962022,0.11525305109175782,900.6730501055454
9682,Ga0.05Sn0.95Bi2Te4,550,7.149748057056298e-05,1.4861564402634242,0.10124161587144287,54818.705952791366
13876,Mn0.50Te0.50,550,0.0005229613561563033,1.0158820517115017,0.10891596138757743,824.9120645073856
5143,Sr0.26Co3.95Ni0.05Sb12,550,-0.0001401091241204997,4.0942607534692534,0.5602818765827919,211193.19339693128
13875,Mn0.49Te0.51,550,0.0005301033185424282,1.1346952141166495,0.096030940062113,802.3366899095614
9683,Ga0.07Sn0.93Bi2Te4,550,7.653304673042527e-05,1.3799649683083297,0.12100301225119665,45056.112215333866
13874,Mn0.48Te0.52,550,0.0005261103524461161,1.2621910473082187,0.07754383319537253,679.0056224926933
13857,Tl9LaTe6,550,0.00011994765651446441,0.4889752729540433,0.2016690526059773,10974.225463329669
15384,Mn0.995Ag0.005Te2,550,0.0002717040238330625,1.1519856738081742,0.09567136995378027,2377.2277999106896
13856,Tl9.25La0.75Te6,550,8.777632904175826e-05,0.9279589426967406,0.09939142013245683,20458.613177248728
13855,Tl9.5La0.5Te6,550,4.5535417187283224e-05,1.2839291281604577,0.07859079713624678,84943.85772910857
5141,Sr0.23Co3.95Ni0.05Sb12,550,-0.00014352453469355903,3.963437392622366,0.5370478343066485,174248.332655922
9692,Ga0.03SnBi1.97Te4,550,8.233410367004969e-05,1.5163938074393728,0.1301321420669443,53477.185368390936
13854,Ge0.86Sb0.09Te,550,0.00018757996774613721,1.7236964774844967,0.9289192052186096,76675.2530370297
13853,Ge0.86Sb0.09Te,550,0.000161613230236843,2.373643761079263,0.6665379437778687,101987.8009281444
13852,Ge0.87Sb0.09Te,550,0.00016534901208945757,2.3918637922745907,0.7569912147151059,114033.53048264627
13851,Ge0.87Sb0.09Te,550,0.00014300083257099373,2.7515091236196008,0.4994907275417593,123159.3843222314
9688,In0.03SnBi1.97Te4,550,7.546736418891412e-05,1.2750412470205086,0.11295549690385698,41961.73323024788
9690,In0.07SnBi1.93Te4,550,7.156327331518199e-05,1.4687486595831942,0.07695302826469103,37443.243052409554
9689,In0.05SnBi1.95Te4,550,7.860250827512467e-05,1.3395157185677269,0.16325121668317916,69263.90895768767
13793,Yb0.029La0.392Te0.578,550,-0.00011749375419259399,1.287208656461407,0.2548379502331227,40563.091808084115
16273,Ge3MnSb2Te7,550,0.0001177575420110958,1.3953593918367813,0.20246920908888494,29854.433659563812
5116,Co0.925Ni0.075Sb3,550,-0.00012099120496877614,6.083094729394845,0.06878628046702176,45727.540466133134
13706,GeSb6Te10,550,7.292823292466898e-05,1.6798102141554865,0.2154223839755252,111216.31222197074
5117,Co0.9Ni0.1Sb3,550,-4.554593673347995e-05,11.502261013909587,0.005779317198981099,58189.196994834805
16339,Ge3.5Sn0.5SbTe5,550,0.00017030538788039224,1.3407779735785734,0.3793271032026365,31882.4198186585
5897,CoSb3,550,0.00018500533708851584,5.354785848176782,0.06465787877768274,17451.115064722577
16340,Ge3SnSbTe5,550,0.0001448424343994953,1.1813915689533334,0.5778491510978904,53435.876828403154
9420,Cr0.03Bi1.97Te3,550,2.5955749477003877e-05,3.1135313043787525,0.007859106961134565,63943.009859195925
13687,Ag0.5Pb6Sn2Sb0.2Te10,550,0.0002321002282609964,0.8616215869854977,1.0975761396107515,29244.4971816598
9417,Cr0.01Bi2Te3,550,5.245701730207964e-05,3.2190653607346023,0.04525821194077917,77023.37543222308
16338,Ge4SbTe5,550,0.0002065610406927356,1.3500640720472699,0.5193531305579561,26109.01935893521
5115,Co0.95Ni0.05Sb3,550,-0.00013592174564949492,6.837464505329069,0.05462436505181752,32712.763016857363
16337,GeBi5.7In0.3Te10,550,-7.781404984909258e-05,1.1123401548134455,0.07535268504143366,28694.071835604464
13878,Mn0.52Te0.48,550,0.00047472173171290587,0.9348200693693368,0.10328870026361048,748.4679438398617
5871,Yb14Mn0.05Al0.95Sb11,550,0.0001628790909864867,0.5380736430802391,0.3400699169959661,11209.399771574332
15322,TiO1.90,550,-0.00022967328291217362,3.2437275110251735,0.0731195785529726,7735.6786572581295
14548,La3Te3.8Pb0.2,550,-6.952608120887225e-05,1.5684105643403046,0.1725499349159454,81792.03308782393
5870,Yb14Mn0.2Al0.8Sb11,550,0.00013344403296980075,0.6979511251501775,0.3701668623558584,21254.24449621564
10385,PtYSb,550,0.00018663891044807526,2.76382881590212,0.2621020359348404,37047.98267026772
15321,TiO1.83,550,-0.00012087482779258624,3.0573246784809567,0.07507139038335954,24277.59118918985
16274,Ge3MnSb2Te7,550,0.00011241971857061521,1.5262930665227152,0.18248363363803502,34786.68744374259
5132,Co0.95Mn0.05Sb3,550,0.00017486789534229316,2.8821718101733005,0.13205151720209773,23353.556870780994
14549,La3Te3.7Pb0.3,550,-5.927070721844552e-05,2.047213376008936,0.16547913196986758,144718.61855183393
10388,NaxCoO2,550,0.00014842915490306368,1.372180259903894,9.51627956646214e-09,0.001077648777103877
5869,Yb14Mn0.6Al0.4Sb11,550,0.00010977038016589163,0.8146106182392759,0.29134003727876634,31657.775366390542
14547,La3Te3.9Pb0.1,550,-6.747933326999956e-05,1.573217960105416,0.1177367517114504,75039.6008995882
5129,Co0.99Mn0.01Sb3,550,0.0001862547178774424,1.7578124270959732,0.186359488908468,18169.638048956927
5128,CoSb3,550,0.00019602814931150118,2.564777532478248,0.1431205335185566,18676.391336644443
5878,Yb14Mn1.05Sb11,550,0.00013896197818212506,0.8449300664138915,0.2230944670417872,16061.973454566192
15320,TiO1.77,550,-7.440906832297548e-05,3.3363857081371404,0.061614917027490786,57464.07060956407
5130,Co0.98Mn0.02Sb3,550,0.0001913434643876337,1.4895674056443546,0.19502402352377365,15262.41926425228
14550,La3Te3.6Pb0.4,550,-5.694869084496825e-05,2.834926941508283,0.12067104148714768,153651.23728289222
13748,Cu2Se,550,0.0001058812067600078,1.6602224414281543,0.3660338478595805,81617.7902950406
13751,Sn0.067Sb0.667Te0.266,550,4.484397898415561e-05,7.954349017931983,0.02008024770379736,145847.22515404946
14009,Cu2Se1.02,550,0.00011417379873369073,1.4792946408835514,0.4743304237772383,82240.64592028888
14008,Cu2Se,550,0.00019003562453579034,0.6682408670927588,0.8257305702521198,24008.728378982607
14007,Cu2Se1.01,550,0.00014717320429438456,0.8438675476488191,0.724649072570465,43306.63684679188
14006,Cu2Se1.01,550,0.00014048361996043735,0.8731094541893899,0.685371130263889,46290.051146993545
14005,Cu2Se1.01,550,0.00014325423117838218,0.962280096295772,0.6379686285329079,45757.839484786244
14004,Cu2Se1.01,550,0.00014278884430628803,0.917869505745406,0.689320611381989,45683.471993087165
9276,Sn0.97Na0.03Se,550,0.00023375540520095107,0.9921712012807882,1.136017729528915,40965.67911885616
9275,Sn0.98Na0.02Se,550,0.0002393980652218618,1.0953317019418805,0.7667303130226156,27912.198724389335
9274,Sn0.99Na0.01Se,550,0.00028840767793194395,1.0975669749283101,0.6463179763247641,17655.0571273644
13978,CuAgSe,550,0.0001773928905323709,0.37255941979271395,0.6680941360459594,12898.645053027285
11309,Cu3Sb0.995Ga0.005Se4,550,0.00028677696553523437,1.3729996690488253,0.2624698157759539,7816.418052810258
11308,Cu3SbSe4,550,0.0003247601517762847,1.7680893439325938,0.15044413100757908,4656.343193759694
11310,CuSb0.099Ga0.01Se4,550,0.0002729557161599857,1.1455307287485494,0.31165749032945705,8473.056193475079
13996,Cu1.97Ag0.03Se1.009,550,0.0001142780982872312,1.165449393522768,0.4203300949275927,66777.06597312975
13995,Cu1.97Ag0.03Se,550,0.0001793323470581413,0.7981155339164643,0.5571153920895857,24837.636637165277
13994,Cu2Se,550,0.00013700172861393718,0.888298521243967,0.4905831264740265,40498.3257586764
13993,Cu2Zn0.075Sn0.925Se3,550,5.328403280904784e-05,3.195203334689808,0.0720899220060473,175750.00885246048
13992,Cu2Zn0.05Sn0.95Se3,550,4.641245881797706e-05,2.8021933764696736,0.08286284737269084,180632.07445662585
13991,Cu2Zn0.025Sn0.975Se3,550,7.976163829036922e-05,2.332710884297492,0.09912137896915336,74055.70940499137
13990,Cu2SnSe3,550,8.936054933868088e-05,1.43672542303738,0.16263072509279405,47904.24548325321
14055,AgPb18SbSe19.928Cl0.072,550,-0.00018437180496366152,1.0095910156199028,0.6611712486510263,29711.038992696827
2376,Ba8Cu4.5Si6Ge35.5,550,-0.00020584218933693824,0.4668785559105544,0.04314972543220152,973.4617107067967
14054,AgPb18SbSe19.964Cl0.036,550,-0.00021063332951598693,0.9287221779919924,0.6425148043234575,22544.67217844451
14053,AgPb18SbSe20,550,0.00020649895037677625,0.7630967689394377,0.0358794703801982,1050.381364634476
10485,In0.19Al0.81N,550,-0.00014572361235529055,3.613736083926468,0.022000225881580432,6068.388627539478
14052,(Ge0.8Pb0.2)0.82Mn0.18Te,550,0.000169144022723107,1.2608688684633813,0.7001118291269018,54317.101212424124
14051,Ge0.8Pb0.2)0.87Mn0.13Te,550,0.00012837546517698088,1.3665990996874808,0.6344604253937581,83326.86599795545
1836,MnGe0.00875Si1.74125,550,0.00017064301718343336,2.149226700136923,0.3401109025969693,45641.829981854666
2377,Ba8Cu4.5Si6Ge35.5,550,-8.965153448648854e-05,0.4964681455298745,0.004541306490192909,579.305971930179
14050,(Ge0.8Pb0.2)0.9Mn0.1Te,550,0.00012787614962409138,1.5714390693808435,0.6446354521468838,93062.57055766806
14056,AgPb18SbSe19.856Cl0.144,550,-0.00016889110520706935,1.0897726636249851,0.6333248032545711,38724.690255746034
14482,Cu1.98Se,550,0.00013923914830992983,0.7756694764874904,0.6582760198100142,49144.11560097443
14069,In4Se2.35,550,-0.0003113776611920823,1.1911930139661444,0.17119236835189974,3426.552363568112
1837,MnGe0.0175Si1.7325,550,0.00017490138765056994,2.2385512539399235,0.3561106191642172,47380.841223155505
14483,Cu1.95Se,550,0.00010836594927604783,0.9988908480521872,0.4510824179263905,67938.87853818374
14057,AgPb18SbSe19.73Cl0.27,550,-0.00017398363177494874,1.0868243490764913,0.6263508352778464,38305.5918465689
14035,(Pb0.85Yb0.15Te)0.15(GeTe)0.85,550,9.086080551170932e-05,2.9928310597110106,0.3308902397006941,188112.7599190845
16094,LT C/C composites,550,1.3365284323666651e-05,12.376828138008774,0.0002091242241299892,22472.52349078654
16095,MT C/C composites,550,1.887708190662249e-05,16.36230496305572,0.000352429038075673,25818.509323566454
9280,Sn0.97Ag0.03Se,550,0.0003099411125439433,1.079062297317242,0.4577542978734969,9855.003328278815
9279,Sn0.98Ag0.02Se,550,0.00031848739851859985,1.1312758375122012,0.2898376783367125,5896.005376415631
16096,HT C/C composites,550,2.1301668953856266e-05,32.74824960627405,0.00039090607039501366,45339.52158379928
14030,(Pb1Te)0.15(GeTe)0.85,550,8.467890506564507e-05,3.7607953045992564,0.27052567159729435,206812.99688731134
1835,MnSi1.75,550,0.00018053445269835384,2.238331014596626,0.3171024683833796,39595.06480715677
9278,Sn0.99Ag0.01Se,550,0.00036567511188212996,1.0927471699982705,0.24325264289012974,3035.5455001210908
10483,MnSi1.73,550,0.00014692473044141855,3.7468816436973564,0.1498055361218234,47276.502851325706
14036,(Pb0.8Yb0.2Te)0.15(GeTe)0.85,550,8.558310568338279e-05,3.325988405911968,0.26927644417759794,185823.32702837948
16089,Ag9TlTe5.1,550,0.00025054932904769933,0.2627862794999045,0.7019329497343312,5096.1511504566215
10484,MnSi1.73,550,0.00016368965465976432,2.0723945258855156,0.3289080348423684,46253.197917247744
13974,Cu2ZnGeSe1S3,550,0.00041026752895355784,1.122614131782525,0.01173966292479877,142.36038425391962
13973,Cu2ZnGeSe2S2,550,0.00040810260774818606,1.0575932138556938,0.011008782932422431,127.10321464731683
16210,Tl9SnTe6,550,6.673057808148766e-05,1.3943596363326625,0.15051916725262104,95611.495587256
9670,SnBi2Te4,550,8.14372496328082e-05,1.3973902416018218,0.17806450053118633,61558.90885585405
13919,PbSeIn0.007,550,-0.0001084006302874615,2.3474179545793223,0.44397032936849545,172826.58115848893
13918,PbSeIn0.005,550,-0.00011266633139725047,2.336485645246155,0.4945880637261856,171211.8447383658
13917,PbSeIn0.003,550,-0.00015311476647029713,1.895873082472769,0.5657398536822842,90371.45357454287
2380,Ba8Cu4.5Si6Ge35.5,550,-0.00010247343085466059,0.815059287775,0.08418258716736204,11677.872058290259
13887,Mo3Sb5.2Te1.8,550,0.0001178620410566476,4.043652706313071,0.1650609856371172,88116.15049284551
13886,Mo3Sb5.6Te1.4,550,8.441177612768076e-05,3.9055213377400015,0.1820112242406914,157360.0424166089
16219,Tl7.8Sn2.2Te6,550,0.00017108522396769432,0.4809833176717215,0.4956712690182538,14644.39762745646
13885,Mo3Sb6Te,550,5.910866669691913e-05,4.4940131357727875,0.11901612822312982,248480.8034459893
9677,In0.03Sn0.97Bi2Te4,550,7.328293295814463e-05,1.39288729965724,0.11122375345088503,46290.08034302969
13884,Mo3Sb7,550,3.0363024240240468e-05,7.0876462374659654,0.03969504649141603,506868.39399871475
9678,In0.05Sn0.95Bi2Te4,550,4.716307136881073e-05,1.5063139306182518,0.02493053252686656,35222.980315865374
13883,Ge0.95Mn0.05Te,550,0.00012769749357763386,2.7187688220338115,0.7299365491520985,193821.28438039086
13882,Ge0.97Mn0.03Te,550,0.00012096874748290271,3.0797266487113952,0.6572229462898951,203884.8962688702