sampleid,composition,Temperature,Seebeck coefficient,Thermal conductivity,ZT,Electrical conductivity
488,Fe0.98Mn0.02Si2,450,0.0002719299682356483,7.038685417115339,0.020300324372809545,4294.0576945011135
17066, (Ag2Te)44(Sb2Te3)56,450,0.00020245408861694863,0.7849381944766499,0.7339871933535406,31650.276944108053
492,Fe0.98Mn0.02Si2,450,0.00011892555898663354,6.880359775994776,0.007498787521087976,8106.609990857191
17036,Zn4Sb3,450,0.00016962460030277125,0.6981052504110337,0.7439258920483643,37660.408458503385
17037,Zn4Sb3,450,0.00017215460115311602,0.7423171437287513,0.7443134558624099,38570.36991694183
17038,Zn4Sb3,450,0.00017586270991970044,0.7654982075976118,0.7400901651129327,38983.09859323853
491,Fe0.98Mn0.02Si2,450,0.00010315898174888425,6.222644696653037,0.005524876647688025,7179.116204482476
17044,PbTe,450,-0.00024436779122918775,1.639830887954682,0.4341949565681873,24236.172469223697
17045,PbTe:Sb (0.3 at.%),450,-0.0002848331183539605,3.320715627260096,0.8654553420188192,79937.78107986427
17047,Pb18Ag1Sb1Te20,450,-0.0005597560801048198,0.3400109462857036,0.8639483008216192,2128.178119865121
490,Fe0.98Mn0.02Si2,450,0.0001100046708016906,5.865878256088282,0.006751243441670705,7272.47184124057
16964, Zn4Sb2.94In0.06,450,0.00016634603129111442,0.8922778709670061,0.34083108942774104,22172.70246003452
522,MnSi1.73,450,0.00015464093894511084,2.3324123843022537,0.1183927286519656,25660.72361730493
16899,Ce0.2Bi1.8Se0.3Te2.7,450,-0.00015139069401910927,1.1031004685194867,0.4214424312621667,46182.232255883006
16900,Y0.2Bi1.8Se0.3Te2.7,450,-0.00015235233689346838,0.8465062083229653,0.7825178607108705,66743.21295120013
16901,Sm0.2Bi1.8Se0.3Te2.7,450,-0.00012446083758703137,0.9858599245803924,0.4712785957329637,72018.05139427309
16898,Bi2Se0.3Te2.7,450,-0.00014621029663389466,1.4332692100121012,0.18716629313804,28360.279935560666
16897,(Zn0.98Pb0.02)4Sb3,450,0.00013880653016551904,0.6717582626777868,0.4627976041265414,33444.472661422034
16914,AgNa0.01SbTe2,450,0.0002835010692002651,0.4858032331898148,0.8637503252676179,11672.079136065962
16915,Ag0.99Na0.01SbTe2,450,0.00027792276482535534,0.5689868704492556,0.8715683579158969,14084.302112498557
16916,AgNa0.01SbTe2Se0.04,450,0.00025529739522478343,0.6269687109000204,0.8429023279568345,17907.514041356775
16917,Ag0.99Na0.01SbTe1.96Se0.04,450,0.0002663195836121298,0.5548947409666859,0.8925396034233058,15437.026016360089
16918,(Ag2Te)54(Sb2Te3)46,450,0.00024364548112067646,0.514772327609587,0.28748346676894776,5510.437233768974
16896,(Zn0.985Pb0.015)4Sb3,450,0.00015052662193245847,0.7677167671575887,0.6271803045188986,47812.78325010623
16895,(Zn0.99Pb0.01)4Sb3,450,0.00014933557356829478,0.7883348672208894,0.6184107371365738,48419.697880072235
16894,(Zn0.995Pb0.005)4Sb3,450,0.0001539024028594314,0.7976894333533527,0.7055658090169228,53099.361863379374
16874,Zn4Sb3,450,0.00015278897035607566,0.8805382448089136,0.3045554272653363,22982.444026485293
16875,(Zn0.999Pr0.001)4Sb3,450,0.00015167757470945946,0.7738293880099867,0.32343206317717804,22151.95541716409
526,MnSi1.75Al0.005,450,0.00017385272790995427,2.5949133954361083,0.13262693625711047,25303.4111560348
16876,(Zn0.998Pr0.002)4Sb3,450,0.00015344808744643642,0.7577866852991729,0.3950114187644809,25953.277856139965
16877,(Zn0.997Pr0.003)4Sb3,450,0.00015231796015226988,1.0607234163644976,0.2515667671416778,23254.630805907324
16882,Zn4Sb3,450,0.00016605936809446217,0.7055413850035273,0.6304401562823236,33912.956098876886
16879,Zn4Sb3,450,0.00014651596437597806,0.8427041338205696,0.5257087468240532,44313.77837246917
16880,Zn4Sb3,450,0.00015348158750066418,0.8305237697260242,0.5530186469284564,41428.98554589259
525,MnSi1.74Al0.005,450,0.00017638037204497796,2.392992660859516,0.1577902307581618,26971.708386319468
16881,Zn4Sb3,450,0.00016407177953618602,0.7241959503262828,0.590928414647804,33531.115990375496
16878,Zn4Sb3,450,0.00014261871927934887,1.0526991289171408,0.4407089729559877,50501.66914382408
524,MnSi1.72Al0.005,450,0.00017015211196796064,2.410209120266998,0.14263289766841192,26386.830595915028
523,MnSi1.74,450,0.00016132698808459878,2.2169056248106958,0.11253939167222833,21302.236563167884
16893,Zn4Sb3,450,0.00014376857402942695,0.7335333994892624,0.5751555722860078,45909.19248835548
16919,(Ag2Te)52(Sb2Te3)48,450,0.00025103570014494553,0.5960650925119261,0.9070414124508036,19155.37190874675
16920,(Ag2Te)50(Sb2Te3)50,450,0.0002284336162166492,0.562994137910962,1.1563006817398809,27345.566590961906
16945,AgSbSe0.01Te1.99,450,0.0002774984372216618,0.5492707930989545,0.9112609838698952,14340.494044993926
16946, AgSbSe0.02Te1.98,450,0.0002575089409268268,0.5778078534587601,0.9480523944801882,18321.610830209367
16947,AgSbSe0.04Te1.96,450,0.00024314261175572755,0.5772574057129495,0.8228007800872488,18315.308294311773
16948,Zn3.6Sb3,450,0.00022961375953875932,2.65673743383496,0.11841149366556022,11918.15729451964
16949,Zn3.9Sb3,450,0.00019619200919971703,1.971866888784346,0.2009316603865183,20984.82125726226
16950,Zn4.2Sb3,450,0.0001885997210682723,1.6653990059235182,0.3680283574164547,36932.934793918095
16944,AgSbTe2,450,0.0002745702372832174,0.5641888629843165,0.8363587378854234,14088.851949832972
16943,AgPb20SbTe20+2vol.%SiC,450,-0.0003510990674073578,0.6867598488973123,0.25600144358762456,2898.4322316096313
16942,AgPb20SbTe20+1vol.%SiC,450,-0.00032372785331446824,0.8143844516880193,0.43781717556096456,7562.542312341484
16922,(Ag2Te)46(Sb2Te3)54,450,0.0001946742637028722,0.8510141252822653,0.5209518846917636,26367.83992855853
16923, (Ag2Te)44(Sb2Te3)56,450,0.000211412117869125,0.694212133410309,0.8732170321862939,30006.76707651862
16924,Zn4Sb3,450,0.00016671615686129549,0.6008930832549246,0.5398006389892404,24749.3241872544
16925,In0.02Zn4Sb3,450,0.00016127032009531216,0.8284670467856657,0.386533197461451,26977.99548159167
16926,Pb0.02Zn4Sb3,450,0.00016686008110202393,0.6678698386239761,0.7035857301666164,36969.8881278933
16927,Ag0.02Zn4Sb3,450,0.00013420398608211115,1.1998629859017431,0.3590035851955105,50861.546577745234
16928,Ag6.52Sb6.52Ge36.96Te50.00,450,0.00012086876967206104,1.5628060391883734,0.5533574975201143,118417.26021009461
16929,Ag6.52Sb6.52Ge36.96Te49.00Yb1.00,450,0.00013607415374746734,1.5559680902337585,0.6858674476429183,115592.49396026124
16930,Ag6.52Sb6.52Ge36.96Te49.00Ce1.00,450,0.00013670706952689164,1.5720167580969908,0.6800479783335435,114700.91554754133
16921,(Ag2Te)48(Sb2Te3)52,450,0.00023122029883235908,0.5966725480702261,1.0281028846303295,25581.266853784626
16871,Zn4Sb3,450,0.00011668907158949421,0.8336579009191456,0.5282075546211914,59826.685030934335
487,Fe0.98Co0.02Si2,450,-0.00017456702106924182,4.520315346409848,0.02681927666897067,8840.541722238331
485,Fe0.98Co0.02Si2,450,-0.00013483697429658362,4.145553496955916,0.014892509644596276,7546.053903581566
17281,Zn4Sb3,450,0.00012798642708191423,0.8770553669090764,0.5023274073548374,52349.430488463026
17282,Zn4Sb3,450,0.00015119544047627987,0.7561238846244968,0.547666338531164,38397.069369531215
17287,Zn4Sb3,450,0.000143938488124872,1.1792618220845206,0.3481692860111559,40942.17153988055
17288,Zn4Sb3,450,0.00015980407820443882,1.0888323681441625,0.3720525770919731,31515.220211620133
166,Pb1Se0.88S0.12Bi0.003,450,-9.9989386682072e-05,2.269217087147772,0.2016979291648747,101731.90140393877
387,Pb0.98Na0.005Te0.88S0.12,450,0.00021796782030078095,1.222852059772073,0.5769760192303347,33001.5551756738
303,Pb0.98Na0.015Te0.88S0.12,450,0.00015312548563306398,1.897391323398244,0.4234449326993866,76145.87445529539
249,Pb1.003Se0.88S0.12Cl0.006,450,-0.0001256179362195252,1.9816054923392412,0.4754801550886876,141650.6533469716
327,Pb0.98Na0.01Te0.88S0.12,450,0.00016287127841678044,1.7722681538905514,0.4281246295065576,63562.083184585215
17249,Zn4Sb3,450,0.00011512607489246846,0.7524369357528331,0.3872623029816441,57811.757537035926
17252,Zn4.24Sb3,450,0.00016870642860387884,0.736827646585343,0.6179872142854417,37288.71104627439
17251,Zn4.16Sb3,450,0.00016689852056637813,0.7250949088569495,0.5806061814195866,35377.81464091885
17253,Zn4.32Sb3,450,0.00016527420732018956,0.7624890036016128,0.6153553246891893,39918.339317435886
17254,Zn4.40Sb3,450,0.00014936605549011154,0.8328682088910476,0.5138600923609682,44310.462637676515
369,Pb0.98Na0.02Te0.7S0.3,450,0.00015379096760598736,1.8160907044221573,0.4035494808195542,68858.91191674709
237,Pb1.002Se1Cl0.004,450,-0.00015884888963126919,1.8470852500897277,0.5974214322709117,97182.22954005422
297,Pb1.005Se1,450,-0.00012467394002589396,2.404631386698245,0.3003504043516427,103255.41810044122
15429,CuFeSe2,450,0.00010585018186181827,1.1263075212492537,0.09413990662318912,19820.40618119705
322,Pb0.985Ga0.015Se1,450,-6.245768469509237e-05,3.3676866214422345,0.07287356800116547,139803.30223216632
335,Sn1Mn0.05Te1,450,7.981270848706639e-05,4.189640139068681,0.19574272339595244,236972.2667390793
178,Pb1.001Se1Cl0.002,450,-0.00017777617898809929,1.8087643736933703,0.4241395199071727,53942.50208362122
435,Pb0.995Ga0.005Se1,450,-9.964043154698328e-05,2.363941269301753,0.2584823916186644,136767.82249768195
235,Pb0.98Na0.02S1,450,0.00011455255622995452,2.135454923754446,0.1864536810700709,67427.84609939437
302,Pb0.997Ga0.003Se1,450,-0.00015316768670243456,1.9966529086120683,0.5427014067218487,102640.01390359923
309,Sn1Te1,450,5.029876899502431e-05,7.550220539273566,0.08961738591932955,478526.7454778517
49,Pb0.98Na0.02Te1,450,0.0001972905968851725,1.7366398703612742,1.0696292084741603,106051.72426511896
274,Pb0.98Na0.02Te0.96S0.04,450,0.0001394915754342886,2.1991103440174946,0.4103231867366956,103053.94176918163
160,Pb0.993Ga0.007Se1,450,-6.48283166160307e-05,2.496763057676615,0.13783936382516615,181973.68389622075
179,Pb0.95Sr0.04Na0.01Se1,450,6.750011002503729e-05,2.133253958560507,0.1286705420214771,136507.00081329065
288,Pb1.004Se1Cl0.008,450,-8.717602266639557e-05,2.8386968820379144,0.19656451273086936,163161.43620533214
36,Fe0.98Ti0.02Si2,450,0.00024480482813931444,8.782544673698903,0.0014494166504202956,494.1050646919407
7,Fe0.96Ti0.04Si2,450,0.0002228104584412649,8.114737091783038,0.0016037424734561016,560.143400445471
17148,Zn0.97Cd0.03Sb,450,0.00022575864267061093,1.504155691617559,0.5863466383905624,34313.53713803313
476,FeSi2,450,0.00023418055253636338,9.899102595667367,0.0011267165078115312,430.59685219329765
17149,Zn0.97Cd0.03Sb,450,0.0002122040477965395,1.663470516211497,0.5358995645960734,41448.976924265735
17151,Zn0.97Cd0.03Sb,450,0.00021091929012666765,1.5351455736669035,0.5067454428682019,38859.23984311326
484,Fe0.98Co0.02Si2,450,-0.0002546530019695067,6.249281899332873,0.031037572727277793,6646.725627321717
483,Fe0.98Co0.02Si2,450,-0.0002110807552861477,6.014291558256537,0.015575187123879413,4672.05512293848
35,Fe0.98Nb0.02Si2,450,9.406461792415e-05,8.687877257749221,0.00052141508864065,1017.2672983354657
486,Fe0.98Co0.02Si2,450,-0.00016165824947619382,4.106570908463433,0.02350444454919732,8207.692202295666
266,Pb1.003Se1Cl0.006,450,-9.54007155467686e-05,2.3569666709159343,0.260370514466664,149840.58660157654
343,Pb0.98Na0.02Te0.88S0.12,450,0.0001710141277376561,1.7861101410482627,0.5316194290343688,72149.37743242737
17217,Zn4Sb3,450,0.00015650740473545214,1.0607474187612589,0.3112670136853549,25608.026887871478
17218,Zn4Sb2.98In0.02,450,0.00015788825469764873,0.7475803011598013,0.5074253056050739,32951.316948918444
270,Pb0.98Na0.02Te1,450,0.00014071203896033667,2.5498908126612982,0.3883654767624599,111144.29489964248
17220,Zn4Sb2.94In0.06,450,0.00016309792999109023,0.7963324606747307,0.577183234520432,35377.41116748571
17221,Zn4Sb2.92In0.08,450,0.00015839490797205926,0.8647016309368241,0.5195499271607498,38683.66751144761
253,Pb1.02Se1,450,-6.759706048705902e-05,3.5595739590563937,0.15006049508176314,259774.3463316704
207,Pb1.003Se0.92S0.08,450,-0.00011180458165225312,2.3813691467678293,0.5021881745349265,212599.13282852087
17231,Zn4Sb3,450,0.00014312508685570852,1.052706110205818,0.4325075893064948,52375.36412272405
240,Pb0.98Na0.02Te0.84S0.16,450,0.00015697335817390062,1.8383323890787957,0.3768007223570658,62469.978028718026
370,Pb1Se1Cl0.001,450,-0.00019564388219001685,1.6808032976714222,0.5382692419645236,52525.645414393395
236,Pb0.98Na0.02Te0.92S0.08,450,0.0001481967420715282,1.9013037718688568,0.4737540269009024,91141.16967574591
16534,Zn3.91Cd0.04Sb3,450,0.0001751016863728505,0.6991562130443522,0.7691812773637368,37981.367855127406
16535,Zn3.96Cd0.04Sb3,450,0.00016354894187510472,0.7125846356554403,0.704786962191275,40342.08671696895
16536,Zn4.01Cd0.04Sb3,450,0.00014523750628036192,0.7618509564420098,0.6527979995378448,50940.36970825262
16537,Zn4.06Cd0.04Sb3,450,0.000139315133741004,0.7936005220813123,0.5924473240153003,53387.846457171756
16564,Mn36.4Si63.6,450,0.00015918935499076656,2.790875561828233,0.17291292689320187,38531.417508845334
16565,Mn32.4Re4Si63.6,450,0.00015710215080607732,1.928712868516791,0.3271336463493003,54731.5065215958
16566,Mn30.4Re6Si63.6,450,0.00015909936647169468,1.6643890775557075,0.43427026291489335,63085.07045495192
16567,Mn28.4Re8Si63.6,450,0.00013718774477341502,1.723703931587781,0.34931817361250306,69259.56916446121
16531,Zn4(Sb0.995Te0.005)3,450,0.00015452879073060287,0.7526136954978555,0.7141298138898782,46285.06976550218
16511,Zn3.675In0.125Sb3,450,0.0001817709817950277,0.8171823536876778,0.6532802571577074,34072.45107893849
16521,Zn0.99Sb,450,0.00034976364735161785,1.4313901640035531,0.16134579275276195,3944.6240868165214
16530,Zn4Sb3,450,0.00015363801087068618,1.0989964546500304,0.35003418541151404,32091.709999938834
16520,ZnSb,450,0.00035295247203567104,1.4794436174215724,0.12817282811677633,3534.9531460453545
1344,Si0.8Ge0.2B0.016 ,450,0.00017558735461969981,2.5717876769210406,0.21600022357983376,40039.65495163288
16630,(Zn4Sb3)0.95In0.05,450,0.00015945813708114523,1.8428830281831092,0.1607816823544102,21553.118902714887
16622,Zn4Sb3,450,0.00015469569047146185,0.7173380759853729,5.974918644063314e-07,0.039800354060470236
16631,(Zn4Sb3)0.9In0.1,450,0.00019169970839383565,1.7658688521161583,0.206849790796838,17784.032661640493
16637,"HMS(Mn4Si7, Mn11Si19, Mn15Si26, and Mn27Si47)",450,0.00015295763794637404,2.687601729047357,0.18402034114194385,43802.621022655374
16638,"HMS(Mn4Si7, Mn11Si19, Mn15Si26, and Mn27Si47)",450,0.00014660807680069498,2.551715164005411,0.18735611327267412,46135.43952191472
16639,"HMS(Mn4Si7, Mn11Si19, Mn15Si26, and Mn27Si47)",450,0.00015995170818434182,2.232474846354978,0.20671224099881413,39586.37473614938
16640,Zn4.08Sb3,450,0.00011396556417865494,1.0212268666047035,0.35939848357764104,56761.88928710778
16642,Zn4Sb2.98Te0.02,450,0.000123195421706624,0.8016976733823399,0.4230474509273072,53273.13725743104
16644,Zn4Sb2.96Te0.04,450,0.00013002352993553328,0.7554451479754615,0.4874123748365039,48506.18612350039
16632,(Zn4Sb3)0.85In0.15,450,0.00018488739835620228,1.6669451757478173,0.15850812707233955,14112.60510341755
1345,Si0.8Ge0.2B0.016 (CrSi2)0.091,450,0.00025572423448881506,2.8784954666974114,0.2347216126228925,22959.49555344412
1352,Si83.75Ge16.25P1.35,450,-0.00013139372791676164,3.984927882258173,0.2345831668977847,120324.90515455206
1351,Si86.25Ge13.75P1.05,450,-0.00012118212155607539,4.346840472896081,0.20999116164387854,138129.07430488092
1349,Si91.25Ge8.75P0.45,450,-0.0001465511112573805,5.522205950802783,0.17283717217438407,98754.98016727359
1346,Si0.8Ge0.2B0.016 (CrSi2)0.091,450,0.0002499846785828174,2.9338799664154203,0.1847842401356776,19278.266188004418
16510,Zn3.725In0.075Sb3,450,0.000185739149178609,0.6820919303391451,0.7547156721649202,29760.97114906392
16509,"Zn3.75In0.05Sb3,",450,0.0001859166841506781,0.7189176050148007,0.6649416322755577,29029.29525343876
16508,Zn3.725In0.025Sb3,450,0.00014990110687185368,0.7790095515531448,0.3504953299673124,22529.740827071317
16461,Zn4Sb3,450,0.00015355557185528084,0.8868930107899722,0.29224935621946724,20690.092965323984
16462,(Zn0.999Sm0.001)4Sb3,450,0.00015525575480064332,0.8630678545525925,0.4267206410896341,27838.539554685118
16463,(Zn0.998Sm0.002)4Sb3,450,0.000163666611514672,0.6231334225981446,0.6705952070136008,30759.507518608614
1430,Bi2Se2.83,450,-9.66918548390409e-05,0.6010652553548255,0.15814839940970482,21821.62721009405
16464,(Zn0.997Sm0.003)4Sb3,450,0.0001546768330508886,0.9190264190665608,0.4234872898144341,29154.360567638592
16465,RuGa2,450,0.00016315752368111454,3.7001232886238222,0.30106013372608165,75888.40023431304
16466,RuGa2,450,0.0001570307002394301,2.9708044071585733,0.3011096852293829,64800.10509959637
1429,(Bi2Te3)8(Bi2Se3)2,450,-0.0002060276720714794,0.6445527170198488,0.5511577365539024,18673.787960263788
16467,MnSi1.7,450,0.00015044318938323001,2.1783617583187045,0.1343504530738059,28522.081010030044
16438,Zn4Sb3,450,0.00014791933568045692,0.729046024987915,0.6112499762742778,44016.97258839592
16440, (Zn0.995Cd0.005)4Sb3,450,0.00016117287905923074,0.7231823986970319,0.6944956144022529,42368.96868224628
16442, (Zn0.99Cd0.01)4Sb3 ,450,0.0001672744114367675,0.7058274730868918,0.6867073199916697,37815.08149550775
16445,(Zn0.985Cd0.015)4Sb3,450,0.00016301989452430815,0.6565883501265896,0.6518040728006803,35316.251710437005
16446,Zn4Sb3,450,0.0001300600555315023,1.1658793920105337,0.4004363415487237,61361.081859891994
16447,(Zn0.99Cd0.01)4Sb3,450,0.00015099509224780088,0.8857794293025689,0.5742195898196274,48942.618864552176
16645,Zn4Sb2.94Te0.06,450,0.0001469033243576709,0.8213776470505432,0.4502054280991393,33143.99220991811
1426,Bi2Te2.90,450,-0.0001455172066535866,0.7668838036305203,0.4955473086574125,40169.90990990992
16494,(Mn0.9Cr0.1)Sir,450,0.00014709921603422584,2.4964899771388867,0.1751384207508727,42521.33200739991
16495,(Mn0.85Cr0.15)Sir,450,0.00012553349377170616,2.3141970873899336,0.1719603166895544,56647.67039949918
16496,(Mn0.8Cr0.2)Sir,450,0.0001178918696810212,2.376696834123822,0.1797534006385476,65874.77081996838
16493,(Mn0.95Cr0.05)Sir,450,0.00015628143357495958,2.4324407742616225,0.15840851941739822,35819.31955492389
16492,MnSir,450,0.00017842136917920354,2.740587975578184,0.12836904144587466,24669.22505394236
1428,(Bi2Te3)8.54(Bi2Se3)1.46,450,-0.00021569794039330242,0.7425084831011901,0.7109538255770916,25076.562764456983
16646,Zn4Sb2.92Te0.08,450,0.00016282068874013973,0.6833721190820474,0.5365979222943185,28107.09802318961
16783,Ge0.87Pb0.13Te,450,0.00014097889794378163,1.918246102013636,0.4987907355814352,95904.9255058586
16784,(GeTe)0.8(AgSbTe2)0.2,450,0.00017937167554542518,1.3297412532306887,0.923860634624882,80255.13033763912
16785,(GeTe)0.85(AgSbTe2)0.15,450,0.00014918386624004264,1.596310942424042,0.6430584318351189,96941.87909678943
16794,AgSbTe2.01,450,0.0002549683299464641,0.5242363040905202,1.056394346998959,18693.169224699643
16795,AgCe0.005Sb0.995Te2.01,450,0.00022974821964410254,0.603691518762704,0.7440782454594357,18341.017236190648
16796,AgCe0.01Sb0.99Te2.01,450,0.00024995662827599857,0.5849673693537618,0.8732100017308015,18334.725825810456
16797,AgCe0.03Sb0.97Te2.01,450,0.00026355806658096394,0.5973709874305897,0.7644146615360327,14389.397090387492
16798,AgSbTe2,450,0.0002740032180188047,0.563105509876549,0.8400693980814512,14089.216428427359
16754,Ag0.8Pb22.5SbTe18.4S1.6,450,-0.0002611835307283502,1.1109254089688445,0.3104365969105739,9505.126849102424
16756,Ag0.8Pb22.5SbTe16S4,450,-0.0002699425424885603,0.9589150023865758,0.2896778135933296,7116.118088027351
16757,Ag0.8Pb22.5SbTe12S8,450,-0.0002602607248868909,0.9648183045003064,0.4506359892225522,13520.407023345659
16834,AgPb17SnSbTe20,450,-0.000223463558123706,1.1704453262864718,0.41863940645505776,21492.855409285494
537,Ba24Ga0Ag0Ge100,450,-3.236867405504789e-05,3.2442442109934744,0.024448216670283046,192245.36043221425
541,Ba24Ga8Ag2Ge90,450,-4.475476421716535e-05,2.2036520190298523,0.054216066868266105,139652.45414685857
540,Ba24Ga4Ag2Ge94,450,-4.027929479333114e-05,2.4647848045781187,0.04646360071156694,159153.39912955312
16855,ZnSb ,450,0.00032370622907782127,1.3213125817237017,0.17254076839775914,4834.8462870415415