sampleid,composition,Temperature,Seebeck coefficient,Thermal conductivity,ZT,Electrical conductivity
12860,CdSb,500,0.00030408546840463236,0.9726825011077862,0.2358428087928261,4916.245104143238
12864,Cd0.99Ag0.01Sb,500,0.000220881254907144,0.8533398094855975,1.0089112108995872,34751.60354816732
14479,AgSn4SbTe6,500,0.00012061915663373547,1.7175538027987192,0.5865929033085401,134403.09783066876
14935,Bi2Te3,500,0.00019337537175520656,1.7439695404475404,0.5537942917390867,51655.318391046116
14936,(GeTe)1x(AgSbTe2)x,500,0.00014237918215865902,1.5799886897035416,0.6158775858142197,96003.12820716547
507,Fe0.95Co0.05Si2-1wt%Er2O3,500,-0.00019188447919669775,2.181391486488524,0.2547595603208203,30186.614230357118
12892,Ca5In0.95Zn0.05Sb6,500,0.00018506600967480068,1.0611470541857893,0.2714018090086407,14227.926572701643
508,Fe0.95co0.05Si2-10wt%Er2O3,500,-0.00021614010160324516,2.822013338352732,0.1878267843936161,22692.162172474345
15112,AgSn18SbTe20,500,6.987355534670982e-05,2.803217761823384,0.19835361500845147,222219.0129679985
10093,MnSi1.73,500,0.00017120620197919718,2.6651943275126735,0.23976057677938625,40476.108927542664
1837,MnGe0.0175Si1.7325,500,0.00016584694726871622,2.2788033008606603,0.3032842508807825,50254.12669510581
14933,TlSbTe2,500,0.00016253723104465745,1.0105557711548552,0.4427289441586783,28334.963782188628
12885,EuZn1.8Cd0.2Sb2,500,0.00016766084721315188,1.6837579216750105,0.6787816508030989,75384.32109031183
14070,In4Se2.35,500,-0.00033592465344443325,0.8746970626775158,0.1573220263146534,2438.896888857587
12884,EuZn2Sb2,500,0.00015497449421745214,1.7906772023249142,0.5858285171350324,75850.8177173987
6322,Ca16Bi11,500,1.0729555489881053e-05,1.3978063162279561,0.0008919723074900377,21660.321838535765
14931,Tl9BiTe6,500,0.00020656421602081984,0.4472873280338104,0.6602325558747221,13220.474614253451
16975,Zn4Sb3 ,500,0.00016887884711374674,0.7292215084697842,0.7100682671418924,36516.56950359256
1838,MnGe0.02625Si1.72375,500,0.00016197478396590256,2.261921561109105,0.32377746529717794,55828.934085129295
12887,EuCd2Sb2,500,0.00028063876467568214,0.9313709038896452,0.4067541272129038,8620.120754547312
4712,Ca0.18Co3.94Ni0.06Sb12.40,500,-0.00015660423978557502,4.943077892666484,0.31695625212988593,132985.62786444474
16979,Zn4Sb3,500,0.00017386523123694131,0.7386963269526092,0.7829926502786761,36615.877392906536
14482,Cu1.98Se,500,0.00012870059891258523,0.7994772257863092,0.5619778960247273,54857.43111608062
12886,EuZn1.4Cd0.6Sb2,500,0.0001961157975581788,1.350902756911124,0.5912015244030346,39759.03958901558
16980,Zn4Sb3,500,0.00017710460568718978,0.7386294133179472,0.7431062431974362,34963.90751794741
12292,Zr0.5Ti0.5NiSn,500,-0.00017883557120381864,5.246315459394742,0.1865917341711337,64461.515026491885
16509,"Zn3.75In0.05Sb3,",500,0.0001953695254515954,0.6853771356084086,0.8019580101370141,27018.31892698832
12890,Ca5In2Sb6,500,0.0004523932009557698,0.8212627311249598,0.11815027171751165,1071.0179433159497
16065,Tl2Te,500,0.000162277066731556,0.3017586469911632,0.10852502001492713,2442.388547970952
12880,YbZn2Sb2,500,7.060896423859447e-05,3.0425787494795977,0.15504110051929612,211508.0842040061
14483,Cu1.95Se,500,9.917712401405574e-05,1.0179678418509397,0.3766412972840855,74817.53980931696
17006,(Zn0.998Gd0.002)4Sb3,500,0.00016416278575003001,0.6891750188695653,0.8400942346781753,38811.228464906
11091,PbTe 4GPa,500,-0.00023821894415918622,1.9067568740766976,0.37878670698689604,25454.669065958864
17007,(Zn0.997Gd0.003)4Sb3,500,0.00016409380895973191,0.7707413627108335,0.6131859233485383,31608.714026001002
11090,PbTe 2GPa ,500,-0.00031634942411236074,1.5631586744767252,0.29027903348891104,9068.065170391665
10896,Fe2VTa0.08Al0.92,500,-0.00011641975201847298,11.716793249874975,0.19150582851658066,361983.884021055
14477,AgSn4SbTe6 ,500,0.00010934721995614327,1.91721999932027,0.4885468936378458,151382.31876799554
12851,Re3Ge0.6As6.4,500,-9.779528099329216e-05,4.196185895623676,0.14806522434372338,104176.45823190859
14105,Tl9LaTe6,500,0.0001959322627009069,0.3537944711620351,0.4488542814960382,9368.504482181252
17004,Zn4Sb3,500,0.00016483709159335354,0.8457713760903718,0.4593206557506898,26471.032821428496
11093,CaCd2Sb2,500,0.0002299443947208188,0.7728218566663944,0.01938654228533742,557.4499441876293
17005,(Zn0.999Gd0.001)4Sb3,500,0.00016591427812453466,0.8228869306770461,0.5454568572896041,30349.727520631426
4476,Cey(Fe3.875Ru0.125)4Sb12,500,0.00011257692661561887,2.633022354018898,0.4434335361060943,180736.6310995824
14064,Bi2Se3,500,-0.00010862769764478453,0.3819688069929755,0.2653755702460802,18251.947328747017
14106,Tl8.95La1.05Te6,500,0.0002459737972244868,0.2981531295132433,0.4023521819096956,4592.287850611128
11092,EuCd2Sb2,500,0.0002834741612577048,0.9326145629197876,0.40156088529311,8628.430958933357
14940,Tl2Te,500,0.0001621476927504662,0.34956468112301026,0.11150533871031287,2606.63892777698
11089,PbTe 0 GPa,500,0.0001169849734964552,1.7864110912464544,0.01342906764071916,3505.880440394805
14061,Mg0.99Na0.01Ag0.97Sb0.99,500,0.00021178373444201955,0.9032089512757104,1.213794307486124,48114.947634741955
496,Fe0.98Co0.02Si2-Sic-2mass%Cu,500,-0.00024225003362559762,4.652694059623023,0.040823485516656696,6473.168051148029
10097,MnSi1.733,500,0.00016913622887723573,2.184380187693255,0.2364408128099081,36108.3282457663
17009,(Zn0.005Nb0.995)4Sb3,500,0.00016204530913761108,0.7243271407476569,0.6926163948394091,33026.467659429814
12290,Zr0.5Ti0.5NiSn,500,-0.00018762714694184424,5.600533888619112,0.15393278420774786,49701.053070628994
4710,Ca0.15Co3.98Ni0.02Sb11.80,500,-0.00015994293479031015,4.301577375106063,0.2838611760956906,86198.9977216201
498,Fe0.98Co0.02Si2-SiC-5mass%Cu,500,-0.0001272695089134985,5.038383104559597,0.021502666692611118,13377.18610420312
17010,(Zn0.01Nb0.99)4Sb3,500,0.00022767351985363343,0.7687123029580305,0.41193020885449694,11529.03413278764
17008,Zn4Sb3,500,0.00016366871993874326,1.0726305131197158,0.41708391224292507,30496.74387510584
14096,Tl9LaTe6 ,500,0.00019582848359093636,0.3461504877432632,0.455396391770617,8997.430348227124
11955,NbCoSn,500,-0.00015189481883666478,8.395312148103436,0.07669236637060617,63183.19085011606
14478,AgSn4SbTe6,500,0.00011550764494449624,1.7980576951514269,0.5474057518671818,142339.98716159473
14097,Tl9CeTe6,500,0.00014750244846312141,0.4086273584064777,0.4153048470767217,16943.01787719594
16060,Ag1.1Pb16Sb0.8Te23,500,0.00032561214065700267,0.991539299164135,0.2047785899787124,3598.2964711799464
504,Fe0.95Co0.05Si2,500,-0.00021258380969018352,5.245936942127507,0.07533662319236124,17490.363686371522
10095,MnSi1.733,500,0.00017051545754855833,2.282269498734284,0.24862304022250936,39031.099477112984
14098,Tl9PrTe6,500,0.00013052364716462108,0.4916133639673845,0.4106591877538358,24783.903161313185
16992,(Zn0.9975Ge0.0025)4Sb3,500,0.00018875501814050852,0.7300379500456171,0.9381734125766872,35741.01968764313
14099,Tl9NdTe6,500,0.00011840466223451684,0.5969565286092078,0.3436023051825763,30660.118563120966
16991,Zn4Sb3,500,0.0001661430022126998,0.7515875625281475,0.6967146247676936,33979.66545369405
505,Fe0.95Co0.05Si2-1wt%SmO2,500,-0.00020436782079929084,2.910105951631253,0.2372493036376104,33061.20779031655
10094,MnSi1.75,500,0.00016596056520521327,2.3524829014362063,0.2570711500162325,43913.697017504885
4475,Cey(Fe3.925Ru0.075)4Sb12,500,0.0001157721464859005,2.705303773546562,0.4674635869837617,182404.89248883625
506,Fe0.95Co0.05Si2-10wt%SmO2,500,-0.00019490350051931408,3.7721811460891788,0.13788246637682458,27383.7108611918
16404,FeSb2Te0.95Sn0.05,500,0.00016970715410615948,2.473740532869588,0.2056148199891723,32400.81334715151
12857,Yb14Mn0.7Zn0.3Sb11,500,7.270279367858398e-05,0.8797531794410968,0.14284743991248106,53675.50189377245
10895,Fe2VTa0.05Al0.95,500,-0.00012309862245393476,13.664156728787901,0.17805397995976396,344592.20962887857
4711,Ca0.18Co3.97Ni0.03Sb12.40,500,-0.00016208227743370608,4.598313536414224,0.4502334161821669,147951.12441032188
499,Fe0.98Co0.02Si2-SiC-2mass%Cu-3mass%Si,500,-0.0002948800093588169,4.832015725437857,0.06129140452667251,6811.884018541781
10168,Fe0.95Co0.05Si2,500,-0.00022600884409920542,7.1773996100582025,0.04305349127989557,12099.143538607563
14103,Tl9.1La0.9Te6 ,500,0.00012077538068291013,0.6233987456635245,0.2818658315536493,24478.91644645889
16995,(Zn0.985Ge0.015)4Sb3,500,0.00017048747654290706,0.7818375364518388,0.761760892376415,34465.57698781823
10096,MnSi1.8,500,0.00017448450871567888,2.6353090033003785,0.19610372357489034,33949.51946689874
14104,Tl9.0.5La0.95Te6,500,0.00014122773418026612,0.5099458915939415,0.33247762791527585,18088.603887347286
14684,Cu2CdSn0.975In0.025Se4,500,0.00035646321589347097,1.4377798229761585,0.04309496166404009,790.9937619614377
14102,Tl9TbTe6,500,9.23743462693908e-05,0.8434755962152986,0.2455174144169323,48800.60147680843
16993,(Zn0.995Ge0.005)4Sb3,500,0.00017214502433490883,0.7563982929870254,0.7954235203562974,35948.30239742325
14100,Tl9SmTe6,500,9.818694263041192e-05,0.7836748468067162,0.2586020348670454,43615.65243209779
12893,Ca5In0.9Zn0.1Sb6,500,0.00014879524587042888,1.0467224076106116,0.2493082525062037,20281.905062434496
12855,Yb14Mn0.7Zn0.3Sb11,500,7.574580853742164e-05,0.8709663411724234,0.13149677336530552,46445.97223501033
16994,(Zn0.99Ge0.01)4Sb3,500,0.00017495952503593858,0.7723928849287092,0.8159626213326512,36663.148412038536
14101,Tl9GdTe6,500,0.00010582406669729768,0.7150505935652764,0.30174197549330023,39894.165139216035
14938,CuTl9Te5,500,0.00016419286078348498,0.4758984946065289,0.2278869410759173,6510.9663387888895
6341,Yb13CaMnSb11,500,9.653988401677663e-05,0.8521919392081478,0.19693718994465687,34805.61305586995
6015,BaGa1.9Zn0.1Sb2,500,0.0002223247930232941,1.0558311349688732,0.32229908971357785,13019.96431104013
12725,Cu2.07Zn0.95Sn1.00Se3.96,500,0.00011632116754700315,2.3607564870276656,0.10544745539968324,34271.93396928767
12724,Cu2.07Zn1.05Sn0.92Se3.93,500,0.00014561808562454096,2.185429942727354,0.10440706537975336,19968.40545802934
9485,(GeTe)12Sb2Te3,500,0.00019159447075708423,1.521032629642674,0.6229790838964511,45711.85278055512
16960,Zn4Sb3,500,0.0001708178200618604,0.7953501935779277,0.7110420299577379,32032.06079797372
12726,Cu2.04Zn0.98Sn0.96Se4.00,500,0.00010716481043142941,2.6918389518678176,0.08872435408150423,36946.160498225174
12728,Cu2.09Zn0.91Sn0.99Se4.00,500,8.775874870976191e-05,2.510574592674553,0.0758648454993554,43077.09103283522
15882,In4Se0.1Te2.9,500,0.00022040262238054247,0.8160445259574355,0.012400848332094755,364.65019801708115
1918,Mn2.95Cr0.05Si4Al3,500,-0.00011471482760628908,4.543919746267639,0.1576118373126379,108845.47178884543
12727,Cu2.14Zn0.97Sn0.94Se3.94,500,9.870381672337016e-05,2.5582228912797733,0.061674074124677264,34208.85332286648
10171,Fe0.94Co0.06Si2.00,500,-0.00016197195955278517,3.8598664847873234,0.08295621780464099,21109.012158507994
484,Fe0.98Co0.02Si2,500,-0.000247638726292341,6.242563573817389,0.03640808619800538,7412.312096476351
4482,CeyFe4Sb12,500,0.00011506439215201086,2.7953730711079467,0.4458230629669376,178691.8886018361
12723,Cu2.23Zn0.91Sn0.90Se3.94,500,0.00030113137225724434,1.2721746739216468,0.10218411228094272,2562.651405993338
10091,Mn0.75r0.15Ru0.1Si1.74,500,0.00013904755181404476,2.4748823698406057,0.14973683287701298,38334.209073928985
14456,In0.005Sn0.995Te ,500,7.659682284364516e-05,4.681139438764701,0.2118134548028444,317313.6785334301
12719,In4Se2.67Cl0.03,500,-0.00015728775650755282,0.699165338993752,0.8788403540559763,44061.637712806136
9616,Mg2Si0.4Sn0.6,500,-0.00016840545623438065,3.309573752548413,0.6653834591314263,147164.46834717982
14042,AgSn4SbTe6,500,0.00011012253730529309,1.9198985154278811,0.4929330559216146,152179.19592810186
14457,In0.015Sn0.985Te ,500,0.00010407361618984289,3.5944982705983923,0.32310748966347497,205285.1939365492
12928,MoSb5.5Te1.5,500,7.991453296191998e-05,4.154748865908164,0.12637560285019314,160918.72232485618
483,Fe0.98Co0.02Si2,500,-0.00021869823685011222,5.964005928601128,0.02182927043680554,5443.982492804204
15883,In4Te3,500,0.0002643790803831534,0.7005631690698683,0.023043291828787383,460.70409901345744
15894,Tl2ZrTe3,500,9.103038736052902e-05,0.3725331990328765,0.07073090445212149,6359.623529062249
15893,Ga12Sb2Te12Se3,500,0.00021202184284865346,1.2058964736766695,0.6856826292273498,33833.723546112764
487,Fe0.98Co0.02Si2,500,-0.00016454228370298414,4.399658107968508,0.029076294649432836,9450.02472710189
14966,Ag9TlTe5.1,500,0.00025337647043655455,0.2301032280755459,0.5776027695435468,4036.715868316099
14460,In0.005Sn0.995Te,500,7.658092983279927e-05,3.768955953363192,0.24212732772020235,283373.05889889447
15895,Ga12Sb2Te7.5Se7.5,500,0.0001463992098649362,1.3089432291738474,0.5057853676351547,59516.72473134162
12736,Pb(1-x)Sb(x)Se at nominal compositions. here x is 0.01,500,-9.063144853758322e-05,3.0782124233908075,0.2837859516066934,185151.60911262262
10902,Sr2ErRuO6,500,-7.338267893026808e-05,0.2802858228976015,3.375118920921396e-06,0.3513444375475843
15897,AgPb18SbTe19Se,500,-0.00022587146917107628,1.0038281135104603,0.5427440859374446,22994.22642203767
1915,Al5.2Re4.7Si4.8,500,0.00012031741814917588,8.076357576091027,0.09150122624287582,102097.57826179707
15896,Tl2SnTe3,500,0.00031430141564348085,0.21491206652512385,0.3142709948949138,1489.6316995674915
12923,Co0.79Ni0.21Sb2.88Sn0.12,500,-0.00011638225817138702,4.795615439173464,0.2057501756888298,131443.97411762545
15888,Ga7Sb2Te10,500,0.00010413634891325528,1.1570171553214756,0.10552863628336154,23069.778921426867
485,Fe0.98Co0.02Si2,500,-0.0001318280327461127,4.087034345803895,0.017301672944240485,8137.871705321787
14968,Ag9TlTe5.3,500,0.00027014947445223663,0.2346513110068072,0.5408887809538456,3188.072445933869
1917,Mn3Si4Al3,500,-0.00010257847113591783,4.400135893582874,0.14352304153450887,120034.27415009835
10244,AgSbTe2,500,0.00026162757751095167,0.3422049473891479,1.2455280139014375,11933.359896911941
12729,Cu2.05Zn0.95Sn0.97Se4.03,500,8.636522189054209e-05,2.296531125454099,0.08157326030008583,44653.03328414397
14458,In0.03Sn0.97Te,500,0.00010112427341281194,3.292941205282544,0.33647390556192514,209418.2225321756
10789,Ba0.7K0.3Cu2Se2,500,6.387479329941171e-05,2.320557080763627,0.13672450997088995,149599.72464426054
1916,Al5.1Re4.7Si4.9,500,-0.0004172724069889684,6.837514467051794,0.0293620447179744,2306.084493853443
486,Fe0.98Co0.02Si2,500,-0.00015060104607419328,4.010633851170802,0.02463535464242581,8712.561413796298
14967,Ag9TlTe5.2,500,0.0002576702099144025,0.270167382885776,0.5840773484660307,4540.4939172552895
15890,Ga7Sb2Te5Se5,500,0.0001491456899459953,1.040959794664693,0.4546685408774182,36659.07936059435
15889,Ga7Sb2Te8Se2,500,0.00021034576969172948,0.9136645096442154,0.5557496497803527,18673.526136687877
12718,In4Se2.32Cl0.03,500,-0.00026382620352647165,0.9097260220992024,0.7019311613160224,16852.657730233797
10544,Ca0.84Dy0.08Yb0.08MnO3,500,-7.327222593311003e-05,2.145361670791184,0.04346297097080977,36196.98112551173
1928,CrSi1.92,500,0.00014552229939443145,9.575525228832497,0.06541971700637672,59161.907061008016
12709,Cu2Ga0.05Sn0.95Se3,500,0.00011426335761040105,1.7162130758023093,0.17343991539688602,37926.2657469088
10250,Hf0.75Zr0.25NiSn0.96Sb0.04,500,-9.412515734365457e-05,5.071328142915005,0.1986754754552131,230442.45728452172
12708,Cu2Ga0.025Sn0.975Se3,500,0.00014790406593682325,1.6484519112288096,0.16927309439047455,22273.928371493515
13559,Cu1.7Bi4.70Se8,500,-0.00013949831050490122,0.5392233258336523,0.2460567914792603,13719.664405877407
12710,Cu2Ga0.075Sn0.925Se3,500,9.966512032116746e-05,1.8342313676981197,0.16987920857469313,54609.13808218519
1927,CrSi1.94,500,0.00015178216471113892,9.042297939407405,0.06890177430441781,54087.60224826788
1926,CrSi1.96,500,0.00017614120860423232,8.836446524376925,0.07926617380796863,45151.64739747698
12712,Cu2Ga0.05Sn0.95Se3,500,0.00011421376964038445,1.9452289179521407,0.1578425811496742,39352.49460305207
12380,Fe2V0.90W0.10Al,500,-8.759024694429603e-05,6.776937282815046,0.13707732102757306,229298.3572714841
12711,Cu2Ga0.025Sn0.975Se3,500,0.0001477994903766296,1.813298539581261,0.17330338156683225,24601.30801953171
15829,TmCuTe2,500,0.00011347520309066238,1.2359912624703182,0.3272297081603477,62192.53723866679
13560,Cu1.8Bi4.65Se8,500,-0.0001422472977655769,0.5132937848184446,0.23504883785505254,11930.97686895777
14979,Tl8GeTe5,500,0.00016830351044466542,0.1986256290207493,0.36572773081181803,4676.8447862984285
478,Fe0.94Ti0.06Si2,500,0.00017543447390491642,9.653429636214238,0.0014702960176253227,743.4770531169105
10153,MnAl0.0063Ge0.0108Si1.7829,500,0.00016007164950551715,2.7067940478077244,0.2153690608259942,45502.96349641452
13557,Cu1.5Bi4.80Se8,500,-0.00014304520045016486,0.5687658021629898,0.19977081722484044,11337.415834221723
6016,Eu11Cd6Sb12,500,0.0001401504092018554,0.6874435802021683,0.16100142629714556,10736.96440317416
13558,Cu1.6Bi4.75Se8,500,-0.00015684407633436022,0.4939041584715949,0.23442042493367635,9413.08294011286
12707,Cu2Ga0.075Sn0.925Se3,500,9.549249896451639e-05,1.9997626365619752,0.20213057911528365,76081.90651329227
10545,Ca0.8Dy0.10Yb0.10MnO3,500,-6.112181189601701e-05,2.5932834684776864,0.028478401357700123,38088.45745283369
16417,TlCu3Te2,500,8.393338211575119e-05,0.6491516887166069,0.2624366892369822,47160.696107499505
12706,Cu2Ga0.05Sn0.95Se3,500,0.00011377719611197752,1.7494881712256942,0.19229969072875105,43243.667253475316
1929,CrSi1.9,500,0.00013596406720363553,9.836470640524674,0.06673546723278344,71019.51564878119
15853,(SnTe0.996I0.004)2.88(In2Te2.988I0.012)0.04,500,0.00011380935728956792,2.730787119009999,0.40268473350191797,158744.49599615578
12716,Cu1.94Ga0.02Se,500,0.0001045068490071005,2.1882389342078192,0.18424047479912747,69073.5642519204
15851,(SnTe)2.88(In2Te3)0.04,500,0.00010602063084935827,3.1077076346738832,0.3876047966864996,213593.37514403442
1924,CrSi2,500,0.00018632761696740343,9.994485045893825,0.07278961710667563,41908.81623687443
12715,Cu1.94Al0.02Se,500,0.00014005037535639857,2.0027011630122997,0.1984953267426436,38188.35218454688
10542,Ca0.96Dy0.02Yb0.02MnO3,500,-0.0001452176539907515,1.93957627925206,0.10806463813942596,18908.704534643966
1925,CrSi1.98,500,0.00018058403460276102,9.075986363587196,0.07903317654094795,43992.086889298014
10541,CaMnO3,500,-0.00035824841096651107,3.434343237657095,0.02115412504313846,1195.4722222167954
15852, (SnTe0.998I0.002)2.88(In2Te2.994I0.006)0.04,500,0.00011028747500091509,2.9061722044937253,0.3859425375013861,179925.73836276625
15856,(SnTe0.99I0.01)2.88(In2Te2.97I0.03)0.04,500,0.00011363325693459541,2.5474028546920917,0.306936261885973,107134.95458743072
14041,AgSn10SbTe12,500,9.056183197464101e-05,2.258181032121933,0.3306033054426146,176294.54347543442
14455,SnTe ,500,4.873517290008554e-05,6.334467068045229,0.1089871440818625,466655.4996763154
10484,MnSi1.73,500,0.00015805272428600595,2.043306991811665,0.2949553326112276,48252.06421564758
15855,(SnTe0.992I0.008)2.88(In2Te2.976I0.024)0.04,500,0.00011733448264993609,2.576449936358629,0.36395850754392334,122313.46373068384
12717,Cu1.94In0.02Se,500,0.00015384412463419369,1.2288034978242248,0.3411566638079913,32223.823903665507
15092,La2.72Te4,500,-0.0002168083932451656,0.6515106053748373,0.2930312209179877,8122.939115098801
15854,(SnTe0.994I0.006)2.88(In2Te2.922I0.018)0.04,500,0.00011907960549614754,2.5501696911395983,0.4266625766284894,142095.71429396345
12929,MoSb5.4Te1.6,500,8.655987359206259e-05,3.5939573419916977,0.1395792296736582,120192.23382217015
15091,La3Te3.20Sb0.80,500,-0.00017821939051778008,1.06795591595225,0.09358302555085267,5066.949034030887
14039,CuAg0.05Ga0.95Te2,500,0.00010903840250473108,2.0304242930320044,0.07643051355091726,21621.02378691145
10543,Ca0.90Dy0.05Yb0.05MnO3,500,-9.5424197095249e-05,2.1286159311349713,0.06881617013338666,32126.864290978232
12379,Fe2V0.92W0.08Al,500,-8.306003186678153e-05,7.8440597160456536,0.09929227196465618,214396.20531986465