sampleid,composition,Temperature,Seebeck coefficient,Thermal conductivity,ZT,Electrical conductivity
13682,Tl8.075Pb1.925Te6,600,0.00016711656264174562,0.5685596868409786,0.8741477551390588,24041.98653969873
9677,In0.03Sn0.97Bi2Te4,600,6.280581560512232e-05,1.5525024090422836,0.07586250779697512,46656.987183420206
480,Fe0.98Zr0.02Si2,600,7.887950380774237e-05,8.226555008299014,0.0008573282728557497,1662.8826778531563
13886,Mo3Sb5.6Te1.4,600,9.169549439444382e-05,3.856162636013775,0.21975619125488066,149680.43299102533
16218,Tl7.95Sn2.05Te6,600,0.00014962835951698377,0.6606249204012868,0.5373461895412674,25022.001116970077
13887,Mo3Sb5.2Te1.8,600,0.00012756845489680048,3.881692800686644,0.2073109611501836,83285.4673670058
4829,Ba0.23Co4Sb12.22,600,-0.0001595854491248436,3.998192925975317,0.7411307163234389,191289.90563153586
13884,Mo3Sb7,600,3.365717728334993e-05,7.303493127725736,0.04803801516102232,486642.6480797049
16211,Tl8.3Sn1.7Te6,600,8.291635741460021e-05,1.0786234804337798,0.2476946327986469,66205.75507716213
543,Ba24Ga4Ge96,600,-4.687630396015395e-05,3.340297471955852,0.07186582495672633,176084.02445926153
9670,SnBi2Te4,600,7.536069649220164e-05,1.5605796596730659,0.14133979111860706,59554.9668845541
16827,Ag0.9Pb18SbTe20,600,-0.0002837589099722766,0.8007227198937348,0.37732216743629693,5929.998808673933
16826,AgPb18SbTe20,600,-0.0003003943643604839,0.7427913289083959,0.2510290290136081,3011.0898718240223
6606,LaOBiSSe,600,-0.0001513853548417098,0.8161463216052963,0.32235156824770017,19409.646767998358
13257,Cu2ZnGa0.03Sn0.97Se4,600,0.00022336547458573296,1.2814173667488604,0.1848432383144512,7207.255026251248
16828,Ag0.8Pb18SbTe20,600,-0.0002728366231848705,0.8352713298085437,0.6303864271088568,11634.443100026132
16210,Tl9SnTe6,600,7.267433854647844e-05,1.3535671207494318,0.19566007861699125,83573.50075081224
13676,Tl7.95Sn2.05Te6,600,0.0002843511353993624,0.33187501316518564,1.0166592823470288,7604.254385531641
16823,(GeTe)80(AgSbTe2)20,600,0.0002214580972075063,1.2317105290282582,1.0939600338732631,44561.476229544875
13678,Tl8.05Sn1.95Te6,600,0.00018680908151810977,0.4272578114619803,1.0581857523074565,20303.097387687638
10086,MnSi1.73Al0.001,600,0.0001918276450820867,2.4521972743194054,0.2617801122386423,29074.912331378437
16342,Ge2Sn2SbTe5,600,0.00014241013848133324,1.4894463651542078,0.4051913446520654,49596.60633994557
7903,La2.76S4,600,-6.314743774052029e-05,1.3515187161663071,0.0931604278193632,52624.84399607981
16822,(GeTe)75(AgSbTe2)25,600,0.0002264713405850272,1.2415237078449488,1.219526851062074,48646.306789323986
1350,Si88.75Ge11.25P0.75,600,-0.00016731737213165548,4.908349321331844,0.345829907093622,101056.60197939238
16825,(GeTe)90(AgSbTe2)10,600,0.00010010682681801284,2.5511634932370706,0.39838652168240746,168484.70336541155
13677,Tl4SnTe3,600,0.0002637760855811205,0.34641374091065785,0.9192305166059448,7251.440957553568
16824,(GeTe)85(AgSbTe2)15,600,0.00018189161410277826,1.543489842946454,1.1817870056063189,90793.37890027196
9672,SnBi6Te10,600,4.653300216159165e-05,1.1792077486779904,0.031866447637015134,25347.52127652168
4830,Yb0.14Co4Sb12.05,600,-0.00020100718796712367,3.0823197123961266,0.8877991359207602,112169.92196717963
16810,Ag(Sb0.93In0.07)Te2,600,0.00027288649503957825,0.6047651985222084,1.2580897486904752,17231.503519673348
13245,In4Pb0.01Sn0.03Se2.7,600,-0.00027238031890436534,0.6672226089954002,0.7566921534722764,10853.4686192106
13104,ZnIn18SiSn20,600,3.2680060922569844e-05,6.558091097294204,0.01923257626083118,177485.42313849606
13105,ZnIn18SiSn20,600,0.00010057674553410063,4.301851700119617,0.13010041513364426,83275.92605531978
15429,CuFeSe2,600,0.0001347102974644764,1.1298682027272822,0.1714397434456746,17856.512278489154
13875,Mn0.49Te0.51,600,0.0004921497699821753,1.068143294400603,0.12455828504978884,1054.520335636433
9683,Ga0.07Sn0.93Bi2Te4,600,6.937056556834354e-05,1.5369571356854748,0.0922635126300646,43686.8629296821
10197,FeAl0.06Si1.95,600,0.00024004090926354292,3.916926819323892,0.051280484122475566,5809.995518908538
13874,Mn0.48Te0.52,600,0.0004931978054020478,1.1657275065436292,0.10130920522388218,884.8099817256282
16798,AgSbTe2,600,0.00027947195401776555,0.5470658219341857,1.1595080565969276,13629.105695963997
10198,(FeSi2)0.7(TiB2)0.3,600,-2.726135011368473e-05,9.753762146410274,0.005809436549785457,127075.02456383035
16795,AgCe0.005Sb0.995Te2.01,600,0.00023561508833830255,0.6007034333789183,1.1086410078212867,20494.486000385965
13243,In4Pb0.01Sn0.03Se2.9,600,-0.00026322149369197717,0.6284473481616542,0.9312275026420246,13275.420056859452
16794,AgSbTe2.01,600,0.0002500344296527449,0.5185607790538799,1.4477390746191852,20216.75805590779
16340,Ge3SnSbTe5,600,0.00015657972677967733,1.164430494608566,0.6542853409497139,51197.40799009292
10227,FeAl0.10Si2,600,0.00023608690871712042,5.928716695199557,0.05861563424875212,10391.520649875269
6245,Yb14MNSb11,600,0.00010123140690047876,1.0127560188017268,0.21329805479340014,31982.793203150584
13244,In4Pb0.01Sn0.03Se2.8,600,-0.0002781777556337576,0.6824591262791632,0.8602529953269626,12109.862790861383
10971,NbCoSn0.9Sb0.1,600,-0.00011794177536496809,5.953625944476137,0.19921733685287127,134658.14323523134
16797,AgCe0.03Sb0.97Te2.01,600,0.00026307772264934256,0.5930164686473882,1.0882716795854686,15793.646239369602
16796,AgCe0.01Sb0.99Te2.01,600,0.00023664339682952974,0.6231037499687334,1.2539579101271363,23532.336473486528
15384,Mn0.995Ag0.005Te2,600,0.0002741544430789725,1.0612047135126412,0.11480701968770625,2452.9414649678483
13101,(GaSb)2.7(Ga2Te3)0.1,600,0.0001300062693982342,3.1440818559858577,0.0020124782497661924,623.9434026620745
5143,Sr0.26Co3.95Ni0.05Sb12,600,-0.0001467304216359619,3.9931638702031886,0.6473116317643335,199909.59588521175
9682,Ga0.05Sn0.95Bi2Te4,600,6.264891926224452e-05,1.679909531147231,0.07253206332111617,54792.72995984204
12424,TiCoSn0.1Sb0.9,600,0.0002687117890396171,6.683644732175738,0.13651390300707278,19376.082264970144
15387,Mn0.97Ag0.03Te2,600,0.00021200457375680082,0.7770161182327132,0.395314745873582,9180.645012149731
13094,Cu2Ge0.9In0.1Se3,600,8.471272488161045e-05,2.0620711699188643,0.13703660466928458,63476.616524524004
13881,Ge0.98Mn0.02Te,600,0.00012991277043691485,2.97795982396622,0.799195811386338,194267.14639029925
16808,Ag(Sb0.97In0.03)Te2,600,0.00024135926838630717,0.6632277335808308,1.045317870271174,19032.501821194386
9679,In0.07Sn0.93Bi2Te4,600,4.930077404713781e-05,0.9275418031542332,0.05125440816741311,37420.00596566333
1349,Si91.25Ge8.75P0.45,600,-0.00018337801146795264,5.523979627933558,0.31635700497016,86613.13437784655
4831,Ba0.15Yb0.09Co4Sb11.86,600,-0.00016879097720960866,3.3259721058062253,0.8228573415239544,161611.25889302688
13095,Cu2Ge0.85In0.15Se3,600,7.393379904893829e-05,2.5358691520952745,0.14889226730767618,112958.2461471135
7904,La2.27Ca0.73S4,600,-6.641108318606509e-05,1.2422759336079472,0.09867611768506523,46323.11417465316
13093,Cu2Ge0.95In0.05Se3,600,8.903341498996599e-05,1.7027121669011838,0.11761247965996502,38587.426939181314
16341,Ge2.5Sn1.5SbTe5,600,0.00014762755203387066,1.4899029211833024,0.3990469583481673,45466.95706542891
2384,Ba8Cu4.5Si6Ge35.5,600,-7.812173821944184e-05,2.0039640464619564,0.1588176424233687,88344.30446558355
13883,Ge0.95Mn0.05Te,600,0.00013938937605669229,2.5799669379976367,0.8557277742570458,174450.04247566074
16809,Ag(Sb0.95In0.05)Te2,600,0.0002585228359752637,0.6257762689447703,1.1556186605983227,17892.67047553107
13683,Tl8.10Pb1.90Te6,600,0.00015902271790672472,0.6016806731110134,0.9573387527167054,30865.23345873924
13882,Ge0.97Mn0.03Te,600,0.00013467013380215407,2.8559060943904453,0.7990612240314943,183589.0162622575
16232,AgIn5Te8,600,0.0001231353916250922,0.6438489541839056,0.001244734714336696,87.97368386967621
13099,(GaSb)2.85(Ga2Te3)0.05,600,0.00023528130083240117,5.212638538714,0.003949272375188999,619.7957904880798
15386,Mn0.98Ag0.02Te2,600,0.0002309512631254704,0.8744471259536997,0.2791918944356883,6223.162332684273
13877,Mn0.51Te0.49,600,0.000483139797613925,1.0083829520550291,0.15063956313529253,1175.7029098257326
13247,In4Pb0.01Sn0.03Se2.6,600,-0.0002635842357371084,0.7865405638345206,0.6500211263867579,11754.041791261296
13100,(GaSb)2.7(Ga2Te3)0.1,600,0.00019603424201763644,2.5700196772792547,0.006110510831249765,681.0811188493053
13876,Mn0.50Te0.50,600,0.0004923668432687445,0.964065324717237,0.14053839959708386,1076.0621321599303
1347,Si0.8Ge0.2B0.016 (CrSi2)0.091,600,0.00029255991088588215,1.5753403906352816,0.15046403568179506,4615.5794788925705
1348,Si93.75Ge6.25P0.15,600,-0.00021758743544120817,6.151322074491598,0.30387156850844005,65802.08531203638
16807,AgSbTe2,600,0.00022563653366123668,0.7078972627334671,0.8994125681301952,20275.384189105785
10196,Fe0.95Co0.05Si1.946Ge0.054,600,-0.00014892118295024297,5.257882696872693,0.05246955509139396,20732.61434775191
5025,Sn0.2Co3FeSb12,600,0.00013879397129402696,1.7034875026133842,0.2566784942671394,36918.33120178603
9681,Ga0.03Sn0.97Bi2Te4,600,7.231823557082494e-05,1.5341308014706594,0.12098571782689405,52363.79210562713
13248,In4Pb0.01Sn0.03Se2.5,600,-0.00026966462376228604,0.7527504740030361,0.631138688087924,10334.344006779327
13098,(GaSb)2.85(Ga2Te3)0.05,600,0.0002498793825746915,4.607324304767211,0.004783138010283918,588.2332860907244
13878,Mn0.52Te0.48,600,0.0004528097375183537,0.8676702431538178,0.13614290905812504,978.2589107859484
13494,K2Bi8Se13,600,-0.00026384116922819863,0.326802796817237,0.5397582722462342,4575.016361899103
13820,Cu2.15Zn0.85GeSe3.9,600,8.865428671888199e-05,0.4276175933003399,0.3320208082136248,26595.96911198085
13203,Yb14MnSb11,600,8.230648140555799e-05,1.0983463431057725,0.17774656217794327,39722.51627570616
14780,Mo2.6Fe0.4Sb6.75Te0.25 ,600,6.518019609211544e-05,4.5900477862017794,0.1802984261811181,311422.21353733685
10116,MnSi1.733,600,0.00018315203933980885,2.416695375554213,0.2620508327082449,31465.3587159648
13201,Yb13.55Pr0.45MnSb11,600,0.00012128286714276496,0.9195177109675958,0.3167406876165365,27498.356595925463
15322,TiO1.90,600,-0.0002288258029303793,3.2428527492490744,0.08379639860219923,8109.914696425492
10279,Si0.8Ge0.2,600,0.00015801095405021805,2.5632211609811826,0.27096043355658866,43459.6111883196
5871,Yb14Mn0.05Al0.95Sb11,600,0.00017072867935464031,0.5473556771757687,0.38599731563452055,10672.59351044251
13202,Yb13.45Pr0.55MnSb11,600,0.00012635872686207744,0.9376549702589388,0.30543758511836683,29500.656553325465
13497,K2Bi8Se5S8,600,-0.000268480624273946,0.4161837927233539,0.393457846309945,3755.3419083519348
13227,CoSb2,600,-3.152273501084909e-05,6.902109050574857,0.01876095321506075,217188.92930866906
15321,TiO1.83,600,-0.00012412010052745772,3.1093847334398728,0.08821536904274077,24988.428293413974
14778,Mo2.55Fe0.45Sb7,600,5.981319726099389e-05,4.699482777687795,0.15929142936288138,310404.3573610641
14548,La3Te3.8Pb0.2,600,-7.590179449353737e-05,1.5647727634945547,0.21670325472161014,78763.8741823379
14345,CdTe0.97Cl0.03,600,0.0003617243960539311,0.889946958711044,0.14694751197727382,1703.494467091022
12430,Ti0.98Nb0.02NiSn,600,-0.00017411273689427995,5.804923340088857,0.3910078981856279,120778.36804851894
13204,Yb13.810.19MnSb11,600,0.00010994506382817772,1.0036772426536515,0.2596107771744428,30948.447385623294
10385,PtYSb,600,0.00018965452364977806,2.626093014682912,0.3081675998280881,38454.90416008063
12043,Zr0.98La0.02NiSn0.98Sb0.02,600,-0.00015899491147156817,6.948681631241177,0.5913132847342255,270895.84840625
14343, CdTe0.995Cl0.005,600,0.0005922702839384187,3.2916895619332376,0.028395354676804718,359.4906249609069
14782,Mo2.6Fe0.4Sb6.25Te0.75,600,7.339252657466859e-05,4.143476528951144,0.1948746932109544,225761.45965200468
13787,In4Se2.6,600,-0.00025364538274275924,0.7666056532064753,0.3445635925637249,5673.866529800568
12044,Zr0.98Ce0.02NiSn0.98Sb0.02,600,-0.00012398603021084912,4.944830541823529,0.33780749577873603,181102.28704253343
16646,Zn4Sb2.92Te0.08,600,0.00017767318763254914,0.6841025714934454,0.8504822079575364,28977.779358796943
14546,La3Te4,600,-7.031997740744007e-05,1.9660764865993088,0.15641585409615388,84239.20789986338
12431,Ti0.95Nb0.05NiSn,600,-0.00012986319402026491,5.787273335127122,0.36748324297889,207500.32203776558
16645,Zn4Sb2.94Te0.06,600,0.0001710756979740483,0.6772177854950001,0.7825118738371127,28639.961077020704
1339,Si80Ge18Sb2,600,-0.0004011520739520029,2.88444346160645,0.3711737325779751,11161.858141463636
10388,NaxCoO2,600,0.00015574916058135662,1.3087825940440627,1.2741465983196009e-08,0.0011457351311733464
13200,Yb13.66Pr0.34MnSb11,600,0.00011877317528133992,1.0002113131065862,0.3058052352792477,29447.983362498213
14547,La3Te3.9Pb0.1,600,-7.406818282856004e-05,1.5699128169887702,0.14386727835161936,71718.49845138946
14781,Mo2.6Fe0.4Sb6.5Te0.5,600,6.899172545427905e-05,4.616834625258728,0.1858824338086852,280928.7230528845
15209,(Ag0.01PbTe)0.945(Ag2Te)0.055,600,-0.00025555301509551235,0.920776198702956,0.8334795228947924,19507.172770316472
14344,CdTe0.99Cl0.01,600,0.0005273187166727285,1.1787458098841659,0.10127616149993404,717.7771847057378
13199, Yb13.82Pr0.18MnSb11,600,0.00011820241664192854,1.0509199465697625,0.3079871630559186,34071.799090604036
5869,Yb14Mn0.6Al0.4Sb11,600,0.00011897454408102241,0.7998625366276177,0.35937536445884033,29004.937785016016
10213,Fe0.94Co0.06Si2.00,600,-0.0001816909613300024,3.7625790865209696,0.12176045856295108,19608.26269020574
235,Pb0.98Na0.02S1,600,0.00017691270989102491,1.6137530034832288,0.3493432109197089,30020.647217385358
10967,NbCoSn0.98Sb0.02,600,-0.00013120237274510946,6.6280675822675335,0.1330650902028634,77493.01173084367
10216,FeSi2,600,-0.0002032868711399085,4.514350385329823,0.07978417244489294,14525.868072003786
5023,Co3FeSb12,600,0.00010970830351493028,2.7814259293434884,0.13949700562213113,51960.68842493644
12428,TiNiSn ,600,-0.00026287127639098857,5.146042383917357,0.2228822625401185,27664.208040874757
16658,AgPb18Sb2Te20,600,-0.00019856600416304332,0.9800318005612016,0.8374309893996204,30479.272628085455
10117,MnSi1.73,600,0.0002123029172903612,2.6131335058667844,0.3093889281346493,30846.717418253287
16671,Ag0.84Sb1.15Cu0.01Te2.16,600,0.00027320564495729005,0.7453836302021822,1.1569579028405697,18028.51944599022
16670,Ag0.84Sb1.15Yb0.01Te2.16,600,0.00025962296013817474,0.7575462045294756,1.2764660741168836,22350.888277660302
16669,Ag0.84Sb1.15Ce0.01Te2.16,600,0.0002618284859371616,0.7768297634801957,1.258517379949545,23835.84678958918
16668,AgSbTe2,600,0.00028672137140242166,0.7177496147887215,1.4678202202876194,19417.197037012244
14774,Mo2.9Fe0.1Sb7,600,4.1665043901356876e-05,6.517627391258791,0.07528900236306221,429070.9487065281
16316,(Ca2CoO3)0.62(CoO2),600,0.00014636839012355663,1.3296759923672257,0.010573355749718892,1269.3638119606576
10217,Fe0.98Co0.02Si2,600,-0.0002312139013346683,4.347306187599761,0.05116075651866878,6933.907651592042
10219,Fe0.95Cr0.05Si1.946Ge0.054,600,0.00020168347405405401,7.480291998959776,0.026077748388911474,7992.759850403309
16657,AgPb18Sb1.5Te20,600,-0.0001780261180705694,1.000803043656313,0.7248865548664816,41591.52420887703
14776,Mo2.7Fe0.3Sb7,600,4.8565883635921805e-05,5.53486294971,0.10627775776456223,377865.93000540294
14346,CdTe0.95Cl0.05,600,0.0004885054106541845,1.0329518676354246,0.1038948031775408,747.9797648909444
5978,Nd0.3Yb0.7Fe3CoSb12,600,0.00011603044280425344,2.4249617898488403,0.40142989505826704,127571.93807501148
12429,Ti0.99Nb0.01NiSn ,600,-0.0002018997684234156,5.5244673484703055,0.3624592652840932,79951.69982207482
15320,TiO1.77,600,-7.840339902110064e-05,3.3769105916253848,0.07372877770151663,57070.297263344124
14549,La3Te3.7Pb0.3,600,-6.594566052372749e-05,2.042624248363077,0.2148512238435588,137290.75236392143
1338,Si80Ge18Sb2,600,-0.00038352673674128655,4.391897256661417,0.2966261279067343,14816.021661086274
12427,TiCoSn0.1Sb0.9,600,0.000218477425746938,7.194361197123756,0.2390181373714993,54343.29839470557
5980,Nd0.4Yb0.6Fe3CoSb12,600,0.00013768649930810838,1.9612012984342357,0.7106721959720496,117841.94973130144
15208,Ag0.04PbTe,600,-0.0002597619001102439,1.357471893436469,0.5872190931907704,21073.688834549717
13748,Cu2Se,600,0.00011476428439572207,1.6531155905035388,0.4320815543370831,74760.88514408612
10215,(FeSi2)0.95(TiB2)0.05,600,-0.00018186818844724537,5.168687167064827,0.07817708738137502,20360.80765801508
16655,AgPb18SbTe20,600,-0.00030206116514063056,0.9103108637088356,0.609387191166209,9873.782734813647
13751,Sn0.067Sb0.667Te0.266,600,4.525508019413986e-05,7.800591265578742,0.021747665321820167,136651.06781583026
13750,Ge0.067Sb0.667Te0.266,600,-4.25865868579189e-05,8.95330637191711,0.02748088186310152,189462.22474349453
10968,NbCoSn0.96Sb0.04,600,-0.00012268013850795436,7.144431948168789,0.11813450378047005,90996.18784195403
16644,Zn4Sb2.96Te0.04,600,0.00016951287938484416,0.6904857690027851,0.8006957853964987,29611.45230077939
16741,(GeTe)80(Ag1.2Sb0.8Te1.8)20,600,0.00020265661676601704,1.448520084231459,1.1553315122568313,68559.22928850273
6233,Yb14Mn1.05Sb11,600,0.00011530434662161184,0.8739627789867479,0.3454400333112848,33400.9809775979
16740,(GeTe)80(AgSbTe2)20,600,0.00020191330214230265,1.425548063707631,1.0966683912766562,63487.030766369666
10084,MnSi1.73,600,0.00019805802727067517,2.295040428672271,0.22424773914599214,21866.650578925306
5864,Ca0.25Yb0.75Zn2Sb2,600,0.00011784840215837615,1.5035510292712515,0.38420907006816707,63592.02889102997
10394,NaxCoO2,600,0.00010852983503479598,1.8096363895858865,3.52481344931433e-09,0.0009025638222290859
1342,Si80Ge18Sb2,600,-0.00037277188956202385,2.7698297679361086,0.28095685322488284,8438.560759340526
6234,Yb14Mn1.1Sb11,600,0.00011471602355702595,0.8918975326486331,0.3206349308215817,31375.070869881987
16630,(Zn4Sb3)0.95In0.05,600,0.0001970963989381886,1.773529896437528,0.2358006486957948,19882.946904677043
16743,(GeTe)80(Ag0.8Sb1.2Te2.2)20,600,0.0001969154727257648,1.5177557274216298,1.0766517670397429,69910.62464948604
7910,La8/3Ca1/3S4,600,-4.3804816669964255e-05,1.7498083871809675,0.06860913906307561,104274.34702975024
14535,Ag3SbSeTe2,600,0.0001965984255084151,0.6094197625862222,0.13144335944732755,3454.171231756137
16742,(GeTe)80(Ag1.4Sb0.6Te1.6)20,600,0.00018696507854851322,1.5448199745167492,0.8481641654927241,61882.011812119425
6232,Yb14Mn1.05Sb11,600,0.00011544552561513748,0.8634305276581548,0.3704013592667053,34623.364312354526
16631,(Zn4Sb3)0.9In0.1,600,0.00023108820055024103,1.6845518301428235,0.30090305639049497,18070.796542905475
5865,YbZn2Sb2,600,8.283473007144836e-05,2.9621881615818526,0.2459391904463553,172417.6251374049
16733,Zn4Sb3,600,0.00019403526477866471,0.9158227669872252,0.6559319008979083,26365.69900171583
14537,Cu0.2Ag2.8SbSeTe2,600,0.00024111547194305717,0.5600332908904038,0.7648069835001996,12279.036217462137
16735,Cu3SbSe4,600,0.00028786499467661,0.939649780303919,0.2895956747337869,5217.266272152612
13495,K2Bi8Se9S4,600,-0.00018750873180911227,0.4869016907099095,0.4257661860701277,9777.28158696057
6230,Yb14MnSb11,600,0.00011540080875535376,0.8945135073968623,0.3216003437643579,31754.36410177749
5024,Sn0.1Co3FeSb12,600,0.00011783195143135505,2.2436590400633407,0.16615203785638058,43612.58429073457
16632,(Zn4Sb3)0.85In0.15,600,0.00022204486843351777,1.595198876738345,0.22605358362421216,13225.723510079126
13706,GeSb6Te10,600,8.14687687226876e-05,1.5992563088369236,0.2576994914203247,99110.33126133244
6231,Yb14MnSb11,600,0.00011544541996526484,0.9081908173757712,0.2783561343323216,27261.724472751812
14536,Cu0.1Ag2.9SbSeTe2,600,0.00021656328057119244,0.6107850295653177,0.26436978439610803,5738.247908519015
15199,CuGaTe2,600,0.00017150983813480207,2.0095777532908268,0.3394395218657249,30974.190666833165
9694,Ga0.07SnBi1.93Te4,600,7.70083328018808e-05,1.4650275909418229,0.11660780445421574,48176.006366655456
435,Pb0.995Ga0.005Se1,600,-0.0001512485662769452,1.6818622625110118,0.5589792206046539,68493.96481137536
5863,Ca0.5Yb0.5Zn2Sb2,600,0.00013819165081687112,1.2286753393849936,0.3775028368076244,34854.37751427797