sampleid,composition,Temperature,Seebeck coefficient,Thermal conductivity,ZT,Electrical conductivity
9460,PbBi2S4,650,-0.00025069488859734825,0.5551000596190031,0.3160722185719741,4359.080869203468
4709,Ca0.20Co4Sb12.46,650,-0.000185796592034793,3.8455005280338552,0.2628341034211269,48986.223618222684
5032,In0.25Co3.9Ni0.1Sb12,650,-0.00022630189201925887,2.923688286508148,0.6000254906260275,50539.680924710876
4476,Cey(Fe3.875Ru0.125)4Sb12,650,0.0001321941558889401,2.75728309536546,0.6461845127165986,157271.23185586405
9484,(GeTe)12Sb2Te3,650,0.00022588276351544513,1.5285178553244918,1.0279094379323614,47084.39672462567
4710,Ca0.15Co3.98Ni0.02Sb11.80,650,-0.00019431306221291843,4.335104313247832,0.4295643064399911,76284.0506211027
14606,Cu2.2Zn0.8SnSe3.9Te0.1,650,0.00012403011126339803,1.1015593779501962,0.28950323026772684,31097.45273663118
14469,CuGa0.9975Zn0.0025Te2,650,0.00020051626106779198,2.7336215534474047,0.2412491652439351,21698.78042405618
14470,CuGa0.99Zn0.01Te2,650,0.00017531880077192543,2.866548229555825,0.17780856825116342,26526.304091305927
4479,Cey(Fe3.6Ru0.4)4Sb12,650,0.00012427036543996955,2.664220697607373,0.5550799208031082,159844.27303147578
5033,In0.25Co3.8Ni0.2Sb12,650,-0.00020866743125507324,2.660330474731985,0.4966650323275689,45621.930558594104
4478,Cey(Fe3.7Ru0.3)4Sb12,650,0.00013052134836033145,2.5523512723951707,0.6964328817991093,155834.17805379746
14931,Tl9BiTe6,650,0.00023405355668924477,0.5162971170407158,0.7912529137641959,11287.843234578979
14482,Cu1.98Se,650,0.00016031624710461897,0.7280539778898527,0.8508722673805882,37717.484570762055
4712,Ca0.18Co3.94Ni0.06Sb12.40,650,-0.00019076318645705055,4.63210240915528,0.5029001267008175,115959.6357277375
14483,Cu1.95Se,650,0.00012674359980003206,0.960736860454682,0.5999646592110006,54181.55599591728
4480,Cey(Fe3.5Ru0.5)4Sb12,650,0.00011173188772577915,2.847039633545873,0.4646351172126192,162728.0787384137
4475,Cey(Fe3.925Ru0.075)4Sb12,650,0.00013564044907489486,2.828460880378618,0.6782842237713371,160539.3624339266
14936,(GeTe)1x(AgSbTe2)x,650,0.00017315030443872524,1.7042317953878443,0.9300762019021401,81336.84456218434
4711,Ca0.18Co3.97Ni0.03Sb12.40,650,-0.0001971149742533652,4.183052776357898,0.6937502062485144,128047.69639723515
5031,In0.25Co3.95Ni0.05Sb12,650,-0.0002205631588450676,3.0611268093050583,0.7504277662147718,73455.22896473124
14933,TlSbTe2,650,0.000216844787870519,0.7498159421514419,0.6860422080417212,16733.52391017499
14459,SnTe,650,7.773785202211423e-05,4.566191462006183,0.2552475072042757,261607.2544700213
14609,Cu2.2Zn0.8SnSe3.6Te0.4,650,0.00016682581037544102,0.9196916248377356,0.2469646478846072,11269.745406289265
10789,Ba0.7K0.3Cu2Se2,650,7.831014569926242e-05,2.1937534433641397,0.21211445234827134,116311.86887254352
14964,Ag9TlTe5.0,650,0.00047583635747109785,0.2291851027190384,0.08294956948500745,113.0316043598134
14686,Cu2CdSn0.9In0.1Se4,650,0.0002100985389267389,1.1177516319288563,0.1731765552973928,5583.128917975405
14461,In0.015Sn0.985Te,650,0.00013362504919545772,2.7320355123445474,0.4816482023373674,106724.38545155404
14684,Cu2CdSn0.975In0.025Se4,650,0.0003715945043814044,0.9949469443535904,0.14314981824473544,1360.7509332239356
14462,In0.03Sn0.97Te,650,0.00011193065865535712,2.53000457841192,0.4517369027240344,128635.3756627581
14963,Cu0.11TiSe2,650,-8.834291818302045e-05,1.7911256227826815,0.1512554477808086,59335.780256736514
14458,In0.03Sn0.97Te,650,0.00011063243481713589,2.975525322800597,0.4584036462113979,167962.02328744525
15092,La2.72Te4,650,-0.000245171997722066,0.6243424035623883,0.37371637874836094,5971.863544776507
14455,SnTe ,650,7.928638638696745e-05,4.784213033656085,0.2613352097195344,299959.62584774534
4482,CeyFe4Sb12,650,0.00013487956059466966,2.9270954139298366,0.6448221876991946,156184.56392791445
14456,In0.005Sn0.995Te ,650,9.853961673636288e-05,3.7655043008498432,0.3857941016835561,211152.16213691945
14683,Cu2CdSnSe4,650,0.00035383852129513925,1.161325639879948,0.12958859072017406,1548.3877124380986
14457,In0.015Sn0.985Te ,650,0.00011922449181606617,3.090996888828095,0.4893884343656354,160099.86034515177
9459,PbBi2S4,650,-0.00027321447024678837,0.5479290725281353,0.2967128462618681,3396.854343002982
14607,Cu2.2Zn0.8SnSe3.8Te0.2,650,0.00016806904724875777,0.8178990515914784,0.42107987039615696,19061.1857726877
14466,La1.9Ca1.1Te4,650,-0.00011309557354608685,1.0872731728547131,0.38277276985665865,40544.92727136727
10904,(Sr0.9La0.1)2ErRuO6,650,-0.00016251124961078137,0.7852857978633585,0.0003044951171276471,13.92925405950416
14961,Cu0.06TiSe2,650,-6.76543756004704e-05,1.9723314249662856,0.07284722807864931,51722.730904740114
14960,Cu0.04TiSe2,650,-5.8143772763522594e-05,2.3856927918627178,0.03373282621440661,42633.667568339486
9450,Pb3Bi2S6,650,-0.00014945934311548102,0.7177140434983649,0.19029145746547788,9555.658949730234
14608,Cu2.2Zn0.8SnSe3.7Te0.3,650,0.00017328865146365845,0.6227087048926376,0.40749053321196105,12798.676796591224
14465,La2.2Ca0.8Te4,650,-0.00014696475537988586,1.0699417875801305,0.30738424011396603,23426.208148501435
13386,Cu2.05Mg0.95SnSe4,650,0.00017964141692491278,0.9169025329725864,0.2475024156909141,11444.220601592815
13385,Cu2MgSnSe4,650,0.0003156848327591121,1.1399458234452524,0.17298450524406697,3036.252306622273
12725,Cu2.07Zn0.95Sn1.00Se3.96,650,0.00014233365542619305,1.9585093214571725,0.21513248982017874,30686.331325636776
12726,Cu2.04Zn0.98Sn0.96Se4.00,650,0.00013787784835850046,2.3007547244631645,0.16044654448015006,30247.020816833014
12727,Cu2.14Zn0.97Sn0.94Se3.94,650,0.00012749116320893172,2.064852786123061,0.1378378973720731,25172.851014341548
12728,Cu2.09Zn0.91Sn0.99Se4.00,650,0.00011559519323808376,2.1195649511087598,0.14559229834210613,35590.64936696838
13387,Cu2.075Mg0.925SnSe4,650,0.00014349451956567486,0.9854196156527456,0.17391936386811244,12809.982531826006
13388,Cu2.1Mg0.9SnSe4,650,0.0001516854184318048,1.0222518488818702,0.3239138066958651,24164.088186230278
12724,Cu2.07Zn1.05Sn0.92Se3.93,650,0.00017704490860688033,1.829876145692477,0.2044510918713696,17093.21756952298
6004,Yb1.025Zn2Sb2,650,0.0002178714426920637,1.4245737927374702,0.7376716371801002,33932.857383879666
6005,Yb1.05Zn2Sb2,650,0.00022162201636880566,1.2482087770224493,0.6905147810862395,25778.83284115921
16493,(Mn0.95Cr0.05)Sir,650,0.00017595736589211844,2.6681547371208367,0.2573110784699981,34617.111349073435
483,Fe0.98Co0.02Si2,650,-0.00022867175415529448,5.921556985460611,0.039331998184119005,6852.412841147741
11955,NbCoSn,650,-0.00016244570959741107,8.952945013862136,0.09300416640945842,53549.87356062076
6006,Yb14MgSb11,650,0.00014257265040582928,0.7707858373174185,0.39176132981510997,19336.591417054507
16495,(Mn0.85Cr0.15)Sir,650,0.00014616029792083755,2.7158450704225343,0.2636087714100519,52608.408283863566
12723,Cu2.23Zn0.91Sn0.90Se3.94,650,0.00033184817927500016,1.0114781695933648,0.2032234736603536,2741.811311428916
16496,(Mn0.8Cr0.2)Sir,650,0.0001375327315565621,2.6831993974851582,0.28876926075200604,62068.26879585294
16494,(Mn0.9Cr0.1)Sir,650,0.00016824455164569108,2.7971119449147057,0.2638972647367785,39782.206845763605