sampleid,composition,Temperature,Seebeck coefficient,Thermal conductivity,ZT,Electrical conductivity
15017,Ag9GaTe6,550,0.000297257362024111,0.34539686638275263,0.2701691193893763,2250.030949485626
17218,Zn4Sb2.98In0.02,550,0.00017276933208927895,0.7265141211227634,0.6983410949910105,30479.69675821605
17220,Zn4Sb2.94In0.06,550,0.00017746305451305357,0.7436821955333237,0.8096810118019904,32522.83847061445
15018,GeSb6Te10,550,7.215259593871486e-05,1.6681235840116757,0.2165308403642905,108582.92771490652
6415,Yb11Sb9.3Ge0.5,550,2.311793860827881e-05,1.4412675808688409,0.012072578727398656,58406.02317832787
4615,La0.3Co3.68Ni0.32Sb11.84Te0.16,550,-0.00016208704050358933,2.3335481456433063,0.5556983432141385,82991.98195958095
266,Pb1.003Se1Cl0.006,550,-0.00012210848877698482,1.901107331364635,0.417010423558598,96671.65306854669
10142,MnSi1.733,550,0.00016949206164689842,2.3823592740637585,0.16157535544779542,24362.45007353035
299,Pb0.95Ca0.04Na0.01Se1,550,0.00010249868871475036,1.7678070091162938,0.4098719806755522,100849.39418790392
15075,ErB22C2N,550,-1.273846429224324e-05,1.4629619170729875,1.1499363956521922e-08,0.18849941342942972
17221,Zn4Sb2.92In0.08,550,0.00017514981468093538,0.8141026311748651,0.7303130604421413,34533.57639386377
10141,MnAl0.0054Si1.7946,550,0.000185806878447676,2.543442444240413,0.2750707350354257,36845.1253495765
6414,Mg3Sb1.7Pb0.3,550,0.00022794753674173335,0.3662277197756908,0.1839073769205938,2170.34093672052
10105,MnAl0.0063Ge0.027Si1.7667,550,0.0001831235441114078,2.516444913025521,0.3070027183761489,41886.935635042406
6526,Ti1.008S2,550,-0.000140167112783339,2.247807866408265,0.17679034014218425,39355.814772698366
10107,MnSi1.73,550,0.00016459812098216706,2.9775479453610187,0.15997641664260132,31967.03027496964
15023,Ag3.8Mo9Se11,550,0.00013572503970895748,0.8170483340698055,0.3667380478443269,25802.519511357925
17252,Zn4.24Sb3,550,0.00018186976371727318,0.7066078111438296,0.8173689222514806,34129.45049364713
6531,Ti1.031S2,550,-6.342775169931139e-05,2.4207405167163922,0.0963976349625318,112081.9296193015
17251,Zn4.16Sb3,550,0.00018408546846131272,0.6999382298238284,0.7836701470942509,32374.74742851826
15024,(Cu/ Fe)Mo6Se8,550,5.229059166671625e-05,1.4613353267906724,0.11990718739348905,93296.49578392477
17253,Zn4.32Sb3,550,0.0001797978193780337,0.7261233460372398,0.8239594475765766,35959.61459031615
17254,Zn4.40Sb3,550,0.00016329110047823533,0.7889150426405183,0.7042375369249635,40422.08908997716
10136,Re0.04Mn0.96Si1.8,550,0.0001783550452919231,2.337354499157855,0.33037446617506794,44136.46760284062
15025,YbSb2Te4,550,0.00010808882717921332,0.7164476776934791,0.3949751315147467,40611.70531777149
369,Pb0.98Na0.02Te0.7S0.3,550,0.00022249242106749486,1.4251543264410145,0.7007670011570358,36681.10458972177
237,Pb1.002Se1Cl0.004,550,-0.0001855804681512449,1.4891297062437938,0.7508422287534168,59027.44647919503
15070,CaB6:SrB6=75:25,550,-9.899250027821999e-05,12.631363075229025,0.10218121592890594,206369.98114722988
12505,B4C,550,0.00032277874621600047,17.795242741572633,0.002291773546199443,747.6307767107003
4520,CoSb2.7Te0.3,550,-0.00011167188592304462,4.535272718819543,0.19435952283122696,132048.91542562714
10137,MnSi1.733,550,0.00017535104211161768,2.2409731282465133,0.263676614696042,34940.480342942166
15071,CaB6:SrB6=50:50,550,-0.00010389153632671116,11.639860975183716,0.11896947838151713,205045.3015462021
12523,Ti10Ru19B8,550,3.9166065076919647e-05,11.619446149391106,0.03748569358273927,483449.4848101246
6528,Ti1.008S2,550,-0.00012845492404366178,2.6506255077660152,0.25953135865273097,76319.54012481005
6529,Ti1.031S2,550,-7.099326139829319e-05,2.9663690075723337,0.11057267565380123,130717.40214147205
207,Pb1.003Se0.92S0.08,550,-0.00014060606460844762,2.0069565274015333,0.8013336356053383,147904.21208532038
4616,La0.3Co3.68Ni0.32Sb11.84Te0.16,550,-0.00016968620378949087,1.9425939243096504,0.720431778661917,79706.46686996815
12529,Ti9Cu2Ru18B8,550,3.703504887064818e-05,10.245227591699248,0.0344031355581544,442186.9699962982
12528,Ti9Ni2Ru18B8,550,3.2346904663240484e-05,9.738317373978447,0.021857192782264976,340679.8769162598
17231,Zn4Sb3,550,0.00016034903356938082,1.0353094230481703,0.5723154399386671,45416.37036807976
15072,CaB6:SrB6=25:75,550,-0.00011517830920685757,14.535338690952113,0.09673996705771336,166638.75735485012
253,Pb1.02Se1,550,-8.946458071691455e-05,2.769651883231135,0.28202680709044803,177439.63092381926
288,Pb1.004Se1Cl0.008,550,-0.0001160406160624062,2.292862985989271,0.3421889111629983,105940.32336603152
15021,GeIn0.6Sb5.4Te10,550,0.0001265465923161977,0.5385714259390297,0.5316251214850383,31630.269630131723
12526,Ti9Fe2Ru18B8,550,3.211787316603659e-05,9.233197126492868,0.019880378058152636,302117.4694949408
179,Pb0.95Sr0.04Na0.01Se1,550,9.777598260960287e-05,1.707194393360501,0.3329050042664833,88476.41617783114
10138,MnSi1.73Al0.0025,550,0.0001811549916484154,2.7212902173923377,0.2421978454250548,36515.88541839357
12525,Ti9Mn2Ru18B8,550,4.127552730031591e-05,8.755253499414675,0.04422915774784582,387277.9240529787
15022,Ag3.4Mo9Se11,550,0.00010533529122877553,1.2302926950998825,0.2476699167227307,41892.790190824926
160,Pb0.993Ga0.007Se1,550,-9.119453798574759e-05,2.005173810088525,0.2857973631243297,125288.12121562172
12524,Ti9Cr2Ru18B8,550,3.434863404632815e-05,8.766591526956411,0.025363408802395383,304830.00063218875
327,Pb0.98Na0.01Te0.88S0.12,550,0.00023539802802434722,1.3568353792799757,0.7256413055655341,32305.824172719378
12527,Ti9Co2Ru18B8,550,3.1265808078132396e-05,8.441708571534157,0.022685111241459,324818.44727430673
10145,MnSi1.75,550,0.00016616685921463584,3.5661827041293988,0.12717790205215748,29865.083548346476
14999,Cu2ZnSnSe4,550,0.00013003096603101636,1.1347850016630874,0.1130746398545886,12857.301892095864
310,Pb0.96Ca0.03Na0.01Se1,550,9.742903375853308e-05,1.8425983528058807,0.3458535528424521,99903.4224972527
6401,EuCd2Sb2,550,0.0002915321082565187,1.1303899888273137,0.4088246218730524,9259.535560016631
15000,Cu2ZnSnSe4,550,8.691868909537559e-05,1.2897915876248007,0.1119711717533011,32498.706306119857
370,Pb1Se1Cl0.001,550,-0.0002336036382816209,1.3840084832393464,0.6764988861655237,31194.92484091851
10123,MnSi1.74,550,0.0001552610575280923,2.99536021884107,0.1846912037945192,41726.07172589998
12642,WOx here x is 2.92.Matrial family tungsten oxide,550,-4.363081007228979e-05,3.731436692837209,0.018473258974887014,56102.165431315225
4617,La0.3Co3.68Ni0.32Sb11.84Te0.16,550,-0.00018089605877120884,2.137616653220068,0.6495669981263925,71433.19283991515
17151,Zn0.97Cd0.03Sb,550,0.0002168237495840946,1.3808492127247487,0.6871487695024355,36696.16157011016
12661,NbCo(1+x)Sb here x is 0.3,550,-0.0001068693662844609,4.715406782591295,0.18736517188400084,133128.70430057097
12660,NbCo(1+x)Sb here x is 0.2,550,-9.060378497439205e-05,5.413201093340115,0.1769412807132414,200929.6483325345
4618,La0.3Co3.68Ni0.32Sb11.84Te0.16,550,-0.00016509994173940465,2.2300703950338137,0.4851886177915066,68476.41201509356
12641,WOx here x is 2.88.Matrial family tungsten oxide,550,-3.449760586500505e-05,4.560439067644133,0.02061847144256604,135488.3805411158
12659,NbCo(1+x)Sb here x is 0 ,550,-8.02410634875062e-05,5.820647551573722,0.15684807013882507,237590.79686636679
10146,MnSi1.73,550,0.00018645041519298782,2.327946116529171,0.19272365822252,23464.891769051494
236,Pb0.98Na0.02Te0.92S0.08,550,0.0002128436305487419,1.4424453107935609,0.8728153687452571,50528.65464585793
6406,Yb14MnSb11,550,0.00012118094647142158,0.9260827440569166,0.15409707501619274,16125.024239343646
6407,Yb14Mn1.05Sb11,550,0.00013976717699660209,0.8446004246131468,0.2243923215269141,16477.61634577513
6408,Yb14Mn1.15Sb11,550,0.00017539705910096443,0.8185054966604959,0.09348287793341067,4087.3751070151466
6409,Yb14MnSb11.022,550,0.0001079938364650512,0.8172861644546193,0.17516077341489744,19672.716451344833
10104,MnSi1.78,550,0.0001932733707235328,2.4441974393833283,0.3247490031766025,38634.6854006747
240,Pb0.98Na0.02Te0.84S0.16,550,0.00022879822405778285,1.4156872473675417,0.6732561755682563,33103.93937166082
343,Pb0.98Na0.02Te0.88S0.12,550,0.0002441969628827136,1.3593385796690411,0.9373747263531116,38850.59520217683
15077,ErB22C2N:ErB4,550,-2.001290213132319e-05,1.9933000695654857,4.522392614127197e-07,4.0922118861601815
6405,EuCd1.4Mn0.6Sb2,550,0.00014097166119868127,0.9420570986984728,0.03571818895568665,2774.017582397427
6404,EuCd1.6Mn0.4Sb2,550,0.00032629282795150044,0.8364366801403575,0.14998679297093204,2105.2175789569487
12640,WOx here x is 2.86.Matrial family tungsten oxide,550,-3.051565640781095e-05,5.102386890540326,0.021729972217649163,199549.9985964495
12639,WOx here x is 2.84.Matrial family tungsten oxide,550,-3.115216463973145e-05,5.618745734456448,0.024732284302463558,274485.4943910239
6402,EuCd1.9Mn0.1Sb2,550,0.0002939047967543899,1.0002246898823235,0.2012168001985698,4093.7612508522448
15003,(CuInTe2)0.995(2ZnTe)0.005,550,0.0002636370004996543,2.477915215625092,0.24294227281910996,15747.590737120765
10144,MnSi1.74,550,0.00011275299719097229,4.621452399909642,0.0878026146031572,58031.93518577662
9483,(CoGe2)0.15(GeTe)12Sb2Te3,550,0.00022240110109882945,1.448348329449971,0.8435566080966591,40402.436766310384
12634,WOx here x is 2.9.material family tungsten oxide,550,-3.635054493804193e-05,3.9989352832795007,0.01728396481592086,78423.19420700458
6403,EuCd1.8Mn0.2Sb2,550,0.0003089929498972648,0.9038975188409372,0.20419160179732296,3274.875003722459
15047,(Cu2Se)0.975(CuGaSe2)0.025,550,0.00011981686123578768,1.1408665209259596,0.4386320321953788,53084.07066738927
274,Pb0.98Na0.02Te0.96S0.04,550,0.00020038595555878084,1.632729024556797,0.7883703747975718,58283.706155817024
10114,MnSi1.7321335Ge0.0008665,550,0.0001645285230489981,2.2788749481272714,0.15881753169658255,24309.378096903358
15048,(Cu2Se)0.97(CuGaSe2)0.03,550,0.0001101092212494272,1.2425621471733288,0.4059148428668948,67391.9148391917
6607,LaOBiSSe,550,-0.00013334861239993522,1.2818238222490668,0.2579701662918371,34637.61988529423
10122,MnSI1.75,550,0.00017324226674590812,2.2180067323720576,0.3819830295409958,51325.89419462017
10124,MnSi1.73Al0.005,550,0.00018591353244299443,2.7015785198951496,0.2329574315707511,33106.21026544246
49,Pb0.98Na0.02Te1,550,0.00027221764000881325,1.205433394504518,1.9601761394038049,57975.31252747053
12422,Nb0.99Ti0.01CoSn0.9Sb0.1,550,-0.00011234660611397139,5.981151791216693,0.18148219484040412,172867.03316845614
12421,Nb0.99Ti0.01CoSn0.92Sb0.08,550,-0.00011965885106315185,6.1255810691892005,0.17313416768315085,128489.83839713965
15046,(Cu2Se)0.985(CuGaSe2)0.015,550,0.00012988323601503194,1.0937642647227863,0.4786764748410885,51794.3053118824
12458,In0.17Ga0.83N,550,0.00016285025473470731,2.2933659097422283,0.1398326240701389,18178.2840494396
10113,MnSi1.75,550,0.0001953641739381264,2.6577214804388003,0.298910308264131,37844.068396842864
6606,LaOBiSSe,550,-0.00014427332245510935,0.8530383303156186,0.28506663569365165,21452.477838912342
12433,Zr0.99Nb0.01NiSn,550,-0.0002069212997965549,7.372749859362347,0.2937326683131918,79016.75728010238
12426,TiCoSn0.05Sb0.95,550,0.00019949788024454487,8.263322923009198,0.1180323165285808,41535.049982466015
10118,Mn0.85Cr0.1Ru0.05Si1.74,550,0.00015541281004205314,2.4983804472860527,0.20458941187879626,38477.37275818161
4492,Cu3Sn0.15Sb0.85S4,550,0.00012526102290824243,2.536174440570587,0.09659819733439637,30764.044209820917
12431,Ti0.95Nb0.05NiSn,550,-0.0001247736487825928,5.908768649315037,0.3265028014139279,218000.74453554023
10116,MnSi1.733,550,0.00017590323579955508,2.4113079482836164,0.2326434820791796,32963.492610622365
4491,Cu3Sn0.1Sb0.9S4,550,0.00012600044818324402,1.9807747408088137,0.042817325347814586,10621.577069805959
12430,Ti0.98Nb0.02NiSn,550,-0.000170447631095584,5.907811978553064,0.3523049254811897,124202.32020740845
4490,Cu3Sn0.05Sb0.95S4,550,0.00033753488248884205,2.088722520696189,0.0907206602986512,3349.683201491943
12429,Ti0.99Nb0.01NiSn ,550,-0.00020116553812598648,5.581883716380204,0.3321487075139201,79556.39274757434
12427,TiCoSn0.1Sb0.9,550,0.0002102241645250525,7.554715811445066,0.2082638927357093,58611.603580821386
235,Pb0.98Na0.02S1,550,0.00015517359523095666,1.7618212324917917,0.2973212969909673,39553.91935985826
12428,TiNiSn ,550,-0.000271913940853762,5.139346901440052,0.19727908140197495,23567.337751985957
4489,Cu3Sb1S4,550,0.000506900677788953,1.5493260351420892,0.03385362118256032,406.2801857927832
10117,MnSi1.73,550,0.00019690586976097162,2.6092122615503346,0.268827926605433,33942.0407445584
12434,Zr0.98Nb0.02NiSn,550,-0.00016921541726014778,7.75402747019417,0.30267494932607564,130215.35453878109
435,Pb0.995Ga0.005Se1,550,-0.00013441559209638617,1.8719514046287749,0.4535786242713722,85444.70632675849
12424,TiCoSn0.1Sb0.9,550,0.0002660768246097612,6.962820231957389,0.11606987965369375,19241.547238463692
15429,CuFeSe2,550,0.00012509025893025702,1.1286813089012726,0.14567313117151276,18511.143579391788
322,Pb0.985Ga0.015Se1,550,-8.21944763699836e-05,2.7256635749950378,0.13789427294367484,101151.07999146226
10115,MnSi1.73,550,0.0001834268800839932,2.6075368753385115,0.3049382378168051,39922.86815839974
335,Sn1Mn0.05Te1,550,0.00010594627292217666,3.529782396746713,0.35635257314067803,172659.77409669972
15050,Y1−xB28.5C4,550,-1.5729683506015494e-05,1.6417378778648175,3.034882408608894e-08,0.3661365022580783
10120,MnAl0.0063Ge0.0054Si1.7883,550,0.0001907287635374852,2.5445374749785445,0.29984502123869217,38133.84677859831
178,Pb1.001Se1Cl0.002,550,-0.00021757486184740039,1.4755126961867957,0.5567925809084077,31554.134197154315
12414,NbCoSn0.94Sb0.06,550,-0.00011756343701238494,6.307790739562988,0.1581516976150556,131047.52062093842
9486,(CoGe2)0.2(GeTe)17Sb2Te3,550,0.00023323609431054326,1.4845685037858576,1.1564554699471452,58312.506772262765
203,Pb0.96Ba0.03Na0.01Se1,550,0.00011257628749722674,1.505017997686945,0.41940127367420654,73146.91961663222
10109,MnSi1.69834Ge0.03466,550,0.00016413534517809651,2.396802042947328,0.19387069396270898,31360.098343092992
12415,NbCoSn0.92Sb0.08,550,-0.0001073689426995315,6.419919000733546,0.14216356472129096,138684.25661214802
17281,Zn4Sb3,550,0.00015316628912792296,0.8200032629511211,0.7317735945041781,42563.26238029585
17282,Zn4Sb3,550,0.00016606017398146448,0.7586243137436798,0.7524446892917316,36509.251198887214
17287,Zn4Sb3,550,0.00016498638995879575,1.1843511093688743,0.4871637018301786,36888.55711867016
10131,MnSi1.73,550,0.00016888087753607733,2.394430699239773,0.15961844754042132,24364.73605872161
17288,Zn4Sb3,550,0.00017458950348704506,1.132751989089458,0.4992033041950773,29047.12926645591
15032,In4Se2.85Te0.15,550,-0.0002750332124008254,0.5751541046668112,0.2101629706526221,3012.19892902236
6770,PbS-ZnS,550,2.2823754616425955e-05,1.4613523172604823,2.8744163263435106e-09,0.014661139804292553
4519,CoSb2.8Te0.2,550,-0.00012753525593946666,3.969671271237044,0.29511755296549946,130308.90516861167
15069,CaB6,550,-0.00010198476097993646,19.732138192917475,0.08375883814365521,244842.02439165453
12412,NbCoSn0.98Sb0.02,550,-0.0001253212999295381,6.660336199510469,0.12253668112868325,88424.184954236
4518,CoSb2.9Te0.1,550,-0.00013846596125348777,5.073875616822049,0.22974783358503345,113640.59294694875
10108,MnSi1.73Cr0.005,550,0.00017996586118192973,2.1442406758627994,0.21951602828270025,26423.894043271743
12413,NbCoSn0.96Sb0.04,550,-0.00011602999382906146,7.173931627573871,0.09920219372657438,100831.50368544133
15031,In4Se3,550,-0.00027516003823120085,0.6087213795117071,0.1866240831090548,3079.151790369547
10133,MnSi1.74,550,0.00014561597416354042,2.5873300008000952,0.18059604655406752,40066.30878778917
297,Pb1.005Se1,550,-0.0001446447003747002,2.055057610724009,0.3767459869611384,67282.92979924101
4516,Co0.8Ni0.2Sb3,550,-7.052774585321069e-05,5.524024034278653,0.0678391353362213,138836.82904771488
249,Pb1.003Se0.88S0.12Cl0.006,550,-0.00015864775776161207,1.6257350254885914,0.6731568736380255,88704.11112055743
10127,Mn0.97Cr0.03Si1.74,550,0.00015694151815065692,2.5909829914155296,0.3006947322188284,57511.14229412353
12419,Nb0.99Ti0.01CoSn0.96Sb0.04,550,-0.00014220969519515477,6.295279081446821,0.13323738316211212,73524.12448367612
302,Pb0.997Ga0.003Se1,550,-0.00018352797324570208,1.5955711893993936,0.7286366250872746,62756.679473927245
10126,MnSi1.733,550,0.00017664646556981916,2.259482111013605,0.289186097903307,38072.70417716968
12420,Nb0.99Ti0.01CoSn0.94Sb0.06,550,-0.00013159404358764775,5.409673562625773,0.1641535787945749,87220.30136237835
12418,Nb0.99Ti0.01CoSn0.98Sb0.02,550,-0.00015491139438243614,5.840963916806783,0.12253668112868325,50982.50428529606
9489,(GeTe)17Sb2Te3,550,0.0002008607895859037,1.452567466465065,1.08631209299176,69674.75567258673
166,Pb1Se0.88S0.12Bi0.003,550,-0.0001287495067072449,1.898091223035752,0.3071385600220804,63943.674284993904
9487,(CoGe2)0.2(GeTe)17Sb2Te3,550,0.00021771034581267984,1.4526721155172369,1.2194268913715665,62712.9242315767
387,Pb0.98Na0.005Te0.88S0.12,550,0.00029723817411176864,0.9932493862668412,0.7602035680221542,15538.759673999855
10110,MnAl0.0063Ge0.045Si1.7487,550,0.00016690827980710704,2.493043907760455,0.2632230546978357,42828.75009809893
12417,Nb0.99Ti0.01CoSn,550,-0.00014365106628313795,5.32419763757734,0.0561685300235828,24551.55354694417
303,Pb0.98Na0.015Te0.88S0.12,550,0.00022217896435423838,1.4304926802480271,0.7802543492466645,41110.548616944
4515,Co0.9Ni0.1Sb3,550,-0.0001325844488684416,4.378839871458466,0.1850572622163435,68354.78135218896
12416,NbCoSn0.9Sb0.1,550,-0.00011060195964492903,5.983498907470803,0.17518224999211002,149083.37382046806
10129,MnAl0.0027Si1.7973,550,0.0001948170850364412,2.5558142685882284,0.2905959090558862,35579.67815139392
9488,(GeTe)17Sb2Te3,550,0.00021866498279521655,1.4664979017471014,1.146118312755756,63007.70743616149
12662,NbCo(1+x)Sb here x is 0.4,550,-0.00014827755985358812,3.8543036123083687,0.16789945200783893,46499.66378068513
10148,Zr3Mn4Si6,550,1.7182782742537726e-05,20.7767078446756,0.0011822674598977636,151266.50823944053
6336,Yb0.5Ca0.5Cd2Sb2,550,0.0002172036315548444,0.9182226805558666,0.627936789201484,21156.472295472395
491,Fe0.98Mn0.02Si2,550,0.00012213089127176882,5.571398996649497,0.015032877697744059,10209.2219008641
6337,Yb0.6Ca0.4Cd2Sb2,550,0.00022213557453258794,0.963691461543504,0.6867235755346949,23317.912623939625
6338,Yb0.8Ca0.2Cd2Sb2,550,0.0001993150544296335,1.1307813554674353,0.5084813137162236,25169.291295365976
6339,Yb1Cd2Sb2,550,0.0001816098944209564,1.2886840077949588,0.5178915609831211,34467.72186776901
6340,Yb14MnSb11,550,8.999482156030479e-05,1.0261925602347244,0.16899489073851753,34184.18427618853
10159,MnSl1.719136Ge0.013864,550,0.00016388222637570753,2.0438844480040004,0.20751696984276727,28713.32959945461
10098,Mn0.65r0.2Ru0.15Si1.74,550,0.00015047495706634913,2.4314230963858634,0.2073604882895709,40485.117027469816
6341,Yb13CaMnSb11,550,0.0001047535768999706,0.8524650368170201,0.24686402786922884,32567.297311650065
17044,PbTe,550,-0.00026411480321930956,1.8770172508631051,0.4977980132471371,21780.973205449576
17046,PbTe-Sb2Te3 (1 mol.%),550,-0.0002323220211843404,1.4787269944655368,0.3344432925798799,14050.242525368032
17047,Pb18Ag1Sb1Te20,550,-0.0004225979750396837,0.3863654782468156,0.6699758712940995,2626.6715499308666
4480,Cey(Fe3.5Ru0.5)4Sb12,550,9.999071873265191e-05,2.7791024080628137,0.3607974191624034,177782.50165257746
6335,Yb0.4Ca0.6Cd2Sb2,550,0.00023855975751161797,0.958015984714037,0.5755420357364397,16870.75396248845
12823,In3.9Zn0.1Se2.95,550,-0.00043063387947990485,0.8780239984599301,0.1957073469705964,1617.8621056696384
17037,Zn4Sb3,550,0.0001859143911242378,0.6802350871960681,1.0291158252977164,35896.60623976884
6332,YbZn1.6Mn0.4Sb2,550,0.00012138354907788269,1.7951632226284042,0.17793555275812487,40256.43713049792
17038,Zn4Sb3,550,0.0001891085697806563,0.7058048950405951,1.0183282934742417,36391.057170581735
6343,Mg3BiSb,550,0.0001807939078396361,0.8059524705682533,0.25811510175099245,9583.48025276827