sampleid,composition,Temperature,Seebeck coefficient,Thermal conductivity,ZT,Electrical conductivity
13528,Nd0.92Sr0.08OZnSb,450,0.00011688516929759424,2.0282246045263577,0.054142382958365966,15061.065015058215
12992,LiZnSb,450,3.803897546466294e-05,5.068005184700646,0.02372822795988514,191783.38406897147
13527,Nd0.95Sr0.05OZnSb,450,0.00011855606577720471,1.9309343665451733,0.04899770521591328,12565.13111761689
10117,MnSi1.73,450,0.00016611177470219235,2.6013697729174354,0.18770592354700025,40132.687397168615
16210,Tl9SnTe6,450,5.48430571515061e-05,1.4759446674991237,0.10363556815803457,119687.48526014356
16211,Tl8.3Sn1.7Te6,450,6.22249609873786e-05,1.1367917168236796,0.13495576980301122,92960.92475635056
16215,Tl8Sn2Te6,450,8.604349837261968e-05,0.6122704253181559,0.17352771261731414,35544.36143828351
16217,Tl7.9Sn2.1Te6,450,0.00010877107805882276,0.6833999808198902,0.2848723167863531,33368.03081428598
16218,Tl7.95Sn2.05Te6,450,0.00011528523702652481,0.7299127502852087,0.3133878612876367,36700.03475032566
1669,Bi2Te3,450,-0.00014098118958006268,1.1530410963990887,0.4611754677947227,59453.32228387218
1668,Bi2Te3,450,-0.00014398958732739694,0.8140960871849927,0.6607317061861679,57653.55970664237
1666,Bi2Te3,450,-0.0001523959669361124,0.6297752813034876,0.640723343921521,38609.72393573859
1665,Bi2Te3,450,-0.0001413718033054755,0.4584196564360461,0.2941292147500719,14992.128137499862
16219,Tl7.8Sn2.2Te6,450,0.00014858255490630287,0.4892192365347571,0.34003436247687624,16374.100361332534
16233,AgIn5Te8,450,0.0001146124382312567,0.9030217167381641,0.0011390684927057913,148.88831593801046
16238,SnTe,450,3.4159681378310304e-05,8.569983106617968,0.029161381404813905,399932.6967025874
16263,Ir0.5Ru32.9xGa66.6,450,-0.00019997951294777904,4.20176772618828,0.0803847076593881,19041.32608172539
16264,IrRu33.4xGa66.6,450,-0.00018360232097996976,4.1602171537323995,0.14158541542106567,40659.7911024988
16265,Ir2Ru31.4xGa66.6,450,-0.0001555242313055641,3.375894661575145,0.20928699159849845,66381.9733626865
16266,Ir3Ru30.4xGa66.6,450,-0.0001482015297986728,3.41498308072023,0.2619845931088366,92589.23628374524
16239,SnSe,450,0.00023061562280476445,1.113666689623479,0.004840795574287329,241.6480611742114
16240,SnTe0.75Se0.25,450,9.038059453246872e-05,4.10227683910909,0.12649154480573946,139069.94945207218
16248,FeGa3,450,-0.0003374082330571468,3.037975483285506,0.014192052143043424,841.5997504001176
16249,RuGa3,450,-9.455278861775207e-06,2.671700829547168,3.5328213213333884e-06,234.61096212493027
16250,OsGa3,450,-0.00046547436976867424,2.666737597006243,0.019378300894621687,530.0195877828953
16088,Ag9TlTe5.05,450,0.0003237603542401503,0.2369904523875483,0.3271385985898401,1338.3834238701995
1836,MnGe0.00875Si1.74125,450,0.0001527045673522791,2.2475871122902182,0.24243588840141786,51927.43557769218
16089,Ag9TlTe5.1,450,0.0002544576727678467,0.2336203313145133,0.4739306697949774,3400.6240023749
16094,LT C/C composites,450,1.1304323436751786e-05,11.41614512174032,0.00013194490003422908,21383.570177697555
16095,MT C/C composites,450,1.6185123583706113e-05,15.078556981879931,0.00022457088823165,24692.216850079676
1835,MnSi1.75,450,0.00015814568542516655,2.320632932874753,0.2229175323757827,45964.598251595315
16096,HT C/C composites,450,1.892357603844715e-05,31.434131212029826,0.0002599320347794482,43622.290128748864
1839,MnGe0.035Si1.715,450,0.00014751408569111044,2.2966368487503233,0.262675323833483,61607.290319940184
16065,Tl2Te,450,0.00014261292360621394,0.29261487390669816,0.07713543122433111,2290.541005701799
1838,MnGe0.02625Si1.72375,450,0.0001539667853942341,2.3382763686214307,0.27119306499365803,59443.97206389804
1837,MnGe0.0175Si1.7325,450,0.00015637962675312992,2.3250214518108883,0.2546418652332592,53800.20281260505
16079,Ag9TlTe5,450,0.00032295322771339454,0.24789523087051,0.3159477636347472,1369.968623921352
16125,Ag0.95Pd0.05TlTe,450,0.0003491028532161224,0.4789778570853112,0.221742515056874,1702.8516323299716
16126,Ag0.9Pd0.1TlTe,450,0.0002593412717074729,0.4145672547252796,0.25420427939262635,2838.27215199932
16136,AgTl3Te2,450,4.623631066132588e-05,1.3556418327784605,0.03346241667311764,44840.50512760157
16271,Ge3MnSb2Te7,450,0.00015487744306573803,0.8328351730693488,0.2721534360801173,18920.065876346
16386,Ca2Co2O5,450,0.00014617878157662483,1.816427062069176,0.030229543904466773,6038.506268006953
16388,Ca2.8Yb0.2Co4O9,450,0.00013833100971024902,1.054853664120185,0.0625550244326459,7423.440349898755
16416,Ga2Te3,450,0.0007193382713298872,0.5343579107026681,0.0006058583572097988,1.5425217008178806
16417,TlCu3Te2,450,7.139359090706664e-05,0.6650312943378238,0.18941018205031526,53805.643905627774
16422,Ag0.5In0.425Pb5Sn4Te10,450,0.0001834983826450406,0.9933793692554672,0.4287419610283427,26015.48491173418
16423,Ag0.5In0.4Pb5Sn4Te10,450,0.00012742526598280045,1.3923910745727381,0.3978380512142513,69180.23273887178
16425,Ag0.5In0.3Pb5Sn4Te10,450,9.794789593359214e-05,1.4847190263330154,0.3992900529547604,112932.56675052375
16424,Ag0.5In0.35Pb5Sn4Te10,450,0.00010812338584480406,1.5023824954011171,0.3647785428854383,94886.2965576807
16402,NaCoO2,450,0.00010650924332621,4.695419921195929,0.0679745144975714,64961.659658463075
16403,FeSb2Te,450,0.0001738535035658535,2.844997336822784,0.10906349968753444,21283.293892971742
16404,FeSb2Te0.95Sn0.05,450,0.00015271374177261448,2.637119703849659,0.15489559924133767,35369.96878851559
16405,FeSb2Te0.9Sn0.1,450,0.00011765591204393484,2.5894521917152225,0.16293764142885347,60137.524930489686
16406,FeSb2Te0.85Sn0.15,450,0.00010374716144060448,2.428036987140191,0.18570097503642544,86827.02432289324
16407,FeSb2Te0.8Sn0.2,450,7.780496355689141e-05,2.2288727455967963,0.1292298243836965,99564.99486132094
16273,Ge3MnSb2Te7,450,8.86398691452261e-05,1.4235068554014456,0.09588808488679718,33820.40122516049
16274,Ge3MnSb2Te7,450,8.54743051899824e-05,1.5487451409405568,0.09564803251367593,40312.31560180301
16275,AgSn4SbTe6,450,0.00010419604330683528,1.924648398571672,0.41176518030672216,158166.1959862504
16272,Ge3MnSb2Te7,450,8.940542317265531e-05,1.416060324421731,0.09814587005157333,34088.38511786652
16341,Ge2.5Sn1.5SbTe5,450,0.00011275287917260689,1.4356649207925076,0.21113624575210255,52984.40834894266
16342,Ge2Sn2SbTe5,450,0.00010801855030271153,1.283941075722013,0.2959278474489957,72363.86013436936
16343,Ge1.5Sn2.5SbTe5,450,0.0001032952154501905,1.5716470160313447,0.1891771306627026,61922.81925728178
16344,GeSn3SbTe5,450,9.480436383106778e-05,1.525613730746182,0.18079452662804416,68196.28183164225
16345,Ge0.5Sn3.5SbTe5,450,9.193377619550776e-05,1.9500425125749172,0.18285110639090546,93751.65860381797
16339,Ge3.5Sn0.5SbTe5,450,0.0001476607870655993,1.3182644497229474,0.2514109356860571,33778.77012954196
16337,GeBi5.7In0.3Te10,450,-0.0001046356989792912,1.0152641892056231,0.10625531638157336,25902.637555995167
16056,Ag0.7Pb18Sb0.8Te20,450,-0.00031933943217166664,0.8337452536554233,0.35865098859570144,5442.4502596176535
2295,Ba24Ag4Ge96,450,-3.4029159202629414e-05,2.3247162230610563,0.0363528006687747,181917.50132898983
2306,Ba8Ga16.6Ge28.7,450,0.00011872462054306132,1.5522558689210009,0.2668238545757369,60669.732345975994
2305,Ba8Ga16.4Ge27.9,450,0.00013344548437507937,0.979824804351396,0.3344581588544919,38892.6877035472
2294,Ba24Ag2Ge98,450,-3.0327560299233936e-05,2.5069154874729143,0.02997859226776528,193521.63263517962
1930,CoSi,450,-8.5833031787274e-05,14.171980410111,0.1173502667884289,504636.8602152262
2293,Ba24Ge100,450,-3.0762699373309036e-05,3.247391934609924,0.023324305904240058,191923.634284566
2291,Ba24Cu4Ge96,450,-3.636265248911645e-05,2.704580147848512,0.02335087377165642,127011.91111566985
2056,Fe0.92Mn0.08Si2.5,450,0.00026873783174298017,10.984644068749047,0.006699515030195028,2264.43168737954
2055,Fe0.92Mn0.08Si2.3,450,0.0002778954486632908,10.55844302772882,0.007416941988078753,2253.457549259022
2054,Fe0.92Mn0.08Si2.1,450,0.00031065260177428,6.916176100085735,0.012343406837154531,1965.7966108986584
2053,Fe0.92Mn0.08Si2.0,450,0.0003074519184281463,7.405175038862573,0.013740463609019498,2392.0474287924303
2052,Fe0.92Mn0.08Si1.9,450,0.00022761843189774374,7.314466972622455,0.011528446386011124,3616.813370349344
2307,Ba8Ga16.6Ge29.8,450,8.007955548154979e-05,1.6965747833486835,0.1663843198843935,94416.26410234591
2378,Ba8Cu4.5Si6Ge35.5,450,0.00024074515102224042,0.4974532228696376,0.0103613292014057,202.8319692730464
2376,Ba8Cu4.5Si6Ge35.5,450,-0.00028707096434441135,0.4375178726675841,0.047051047194980544,566.1684294750874
15466,MgFe2O4,450,-0.0001942116799609416,3.1547466406169136,0.00032099535929444893,57.43802323123069
15467,MgFe2O4,450,-0.00013793896071728922,3.816343600207418,0.0008638654007967398,386.645779156871
15487,Mg2Si,450,-0.00012617863578515058,4.761320068250389,0.19012956149232552,108962.09545003613
15488,MnSi1.73,450,0.00015750141983152642,2.580347201023644,0.21349719796609196,49657.41627168577
1932,(CoSi)0.95(SiO2)0.05,450,-8.843982768409316e-05,9.633185854875329,0.09765269495994773,291888.5684001603
1881,CrSi2,450,0.00012257462476272451,5.872453565921923,0.11089020801312308,96316.15367678656
15933, SiC,450,8.667594014496267e-05,2.665438520467534,0.08046162594463738,58234.07978740878
15934,Ni0.05Mo3Sb5.4Te1.6,450,8.921753446923288e-05,4.4191381196908734,0.13869000118851071,151876.9592454023
15935, Ni0.05Mo3Sb5.4Te1.6/0.0100Al2O3,450,7.691351834992948e-05,4.030476000270587,0.1056798574009627,134920.37037580027
15936,Al2O3,450,7.96057816737307e-05,4.0028447803868055,0.11587228281827446,136043.17591227294
15937,Al2O3,450,8.113150303604948e-05,3.962919143507489,0.1129509653201854,131305.11199676845
15954,Cu0.75Ag0.2InTe2,450,0.00026833427190423373,1.2683688599524563,0.23455261876953135,7418.398072332733
15944,BaCu5.9SeTe6,450,0.00020774029553413345,0.5599566911145797,0.4666029749830805,12873.82997920964
15945,BaCu5.9SeTe6,450,0.00021148233713437194,0.6331190586825417,0.4664655305980975,14520.034892498672
15946,BaCu5.9STe6,450,0.00020764886971072052,0.4680604824560308,0.3396875134154091,7696.58918896408
15949,Cu0.75Ag0.2InTe2,450,0.0002710006380734274,1.356567992065475,0.23571742954571254,8185.393023155669
15951,Cu0.68Ag0.3InTe2,450,0.00028612820876551163,1.2208486081696492,0.21358476375752375,5901.208289747932
1873,CoSi0.98Ge0.02,450,-8.815569077881875e-05,11.54562333729291,0.1590483542942553,525089.5136482427
1872,CoSi0.995B0.005,450,-8.84488943554785e-05,12.655238163995593,0.1658168392303669,596075.9842056634
1870,Al27.5Mn27.5Ta2.5Fe3Si39.5,450,-9.722185011269282e-05,3.228048442468065,0.09235877826021988,70093.53228296508
1869,Al27.5Mn29W3Si39.5,450,-0.00012731012838608242,2.697440768365965,0.16104344250889585,59560.25337493584
1868,Al27.5Mn31Cr2Si39.5,450,-0.00011646803510502714,4.765352770137655,0.07678521640194842,59944.1294681055
16060,Ag1.1Pb16Sb0.8Te23,450,0.00033124952124165285,1.0159013558101062,0.1842875554985473,3668.679777181313
1871,CoSi,450,-8.28328599176256e-05,11.92628957351724,0.1280785691393422,494725.1522243181
15932,Ni0.05Mo3Sb5.4Te1.6/0.020Sic,450,8.399064247500344e-05,2.7672742975176337,0.09630128145479644,68377.07404713612
15931,Ni0.05Mo3Sb5.4Te1.6/0.020SiC,450,8.39904931727647e-05,3.8843680341884173,0.11073928249965136,114060.49027930315
15930,Ni0.05Mo3Sb5.4Te1.6,450,8.38342177380294e-05,4.822175327510736,0.08993300137503363,114866.39872869207
1929,CrSi1.9,450,0.0001264393708004529,10.62090847563702,0.05661585832544507,83583.8932841606
1928,CrSi1.92,450,0.00013359117430280604,10.350150574516503,0.053357569728163086,68766.1420325743
15829,TmCuTe2,450,0.00010246552110973708,1.3245905746680966,0.258676282263417,69926.71359892937
1926,CrSi1.96,450,0.00016277535049963866,9.57095055921674,0.0659824765610842,52965.59956686293
15840,(SnTe)2.76(In2Te3)0.08,450,9.97938582426356e-05,2.999081406316938,0.324232951463992,177456.42802076915
15841,(SnTe)2.7(In2Te3)0.1,450,9.50302852699418e-05,3.0870562003606064,0.30628680606469233,197551.3910597865
1927,CrSi1.94,450,0.00013979601522676167,9.773791323859506,0.05701208299815767,63361.85343150875
1931,(CoSi)0.975(SiO2)0.025,450,-9.56602542061273e-05,13.016562084351845,0.15168449463387945,515858.6849165123
15776,Pb0.999TeIn0.001?,450,0.0002936783708033814,1.5307639037859078,0.4610883645926178,18731.801896503308
15777,Pb0.997TeIn0.003?,450,0.00023631154504644535,1.6614706950508382,0.5110382913150082,34246.446870629785
15778,Pb0.995TeIn0.005?,450,0.00023411794500877118,1.630522680059577,0.4375899461804301,29605.208824915517
15779,PbTe doped Pb2I,450,0.00014292318491402245,1.7391756766347228,0.5616519210749928,115075.44368980768
15780,0.05 wt% PbI2+0.3 at% In,450,0.00023297767370059449,1.4381728050929017,0.5865154157421729,34728.499908857746
15781,0.08 wt% PbI2+0.3 at% In,450,0.00022276322921818998,1.4264164644473931,0.7310430527994565,46761.064551902244
15782,0.10 wt% PbI2+0.3 at% In,450,0.00015442202887667176,1.6796529223007888,0.6924326677083763,111155.19107279267
15783,PbTe,450,0.00014152790919277192,1.7368767791283404,0.5849830673868526,114904.71332248596
1925,CrSi1.98,450,0.0001667936321723836,9.864137814776171,0.06467773413499013,50961.53278857195
1924,CrSi2,450,0.00017199763074935776,10.856524217397324,0.06008023364125409,48996.490696344736
15853,(SnTe0.996I0.004)2.88(In2Te2.988I0.012)0.04,450,0.00010880753208427316,2.7941038102065185,0.3313857261514236,165671.8633152319
1916,Al5.1Re4.7Si4.9,450,-0.0004085701765658206,6.934491659321847,0.023183611851625038,2140.177967764903
15893,Ga12Sb2Te12Se3,450,0.00020270008787969288,1.1468473470081233,0.5574041753756084,31580.36391386337
15895,Ga12Sb2Te7.5Se7.5,450,0.0001362553205582864,1.269326897397908,0.4122349823315232,59910.874995009246
15896,Tl2SnTe3,450,0.0002973836486779534,0.2274209129511677,0.29922359306093443,1771.400367020205
15897,AgPb18SbTe19Se,450,-0.00021732542040658182,1.0458476066878484,0.5042057761629613,25819.57487846839
1915,Al5.2Re4.7Si4.8,450,0.00011315880199968272,8.086016523290247,0.07705021228994165,108123.29406095321
15890,Ga7Sb2Te5Se5,450,0.0001349025461358229,1.0147398932023388,0.33881444471550315,36413.95302439921
15898,AgPb18SbTe18Se2,450,-0.00019583848322861683,1.1377081362516994,0.6117164369298568,46437.49918164891
1914,Al5.4Re4.7Si4.6,450,4.649172658819311e-05,11.0991206059727,0.03963415923447373,452266.4336706586
15903,BaCu5.7Se0.6Te6.4,450,0.0001254411224115104,0.4744386658083781,0.07905100257333991,4629.552744757624
1913,Al5.5Re4.7Si4.5,450,4.808249236761756e-05,11.649012159983421,0.04486208811949132,502321.9156161258
1912,Al5.7Re4.7Si4.3,450,1.2551349357508602e-06,12.306497437760287,4.132764671955849e-05,717433.7318234872
1911,Al6Re4.7Si4,450,-1.7041666697155028e-05,9.589578581548913,0.009686564318578344,710775.8132358573
1904,CrSi2,450,0.00012912136770996634,8.576656435397942,0.09219596026439776,105395.2786549536
15900,AgPb18SbTe16Se4,450,-0.00020427140325639216,1.0335061823672065,0.5932430606274895,36461.56548755807
15889,Ga7Sb2Te8Se2,450,0.0001963681084373625,0.8806423157394708,0.4008973270989447,16309.679740134878
15888,Ga7Sb2Te10,450,9.218962149090584e-05,1.09797304994403,0.08997109938462802,25536.697051732823
1917,Mn3Si4Al3,450,-9.715888815375662e-05,4.255860905194858,0.12745641341164962,127694.30610531641
15854,(SnTe0.994I0.006)2.88(In2Te2.922I0.018)0.04,450,0.00011350948366770456,2.614380107896072,0.3469799548337472,147955.50918795375
15855,(SnTe0.992I0.008)2.88(In2Te2.976I0.024)0.04,450,0.00011185297735347108,2.646049689724556,0.29618204642524937,127090.66174168064
15856,(SnTe0.99I0.01)2.88(In2Te2.97I0.03)0.04,450,0.00010827494470611406,2.6226621758497233,0.24525587941171456,111030.35827829373
15852, (SnTe0.998I0.002)2.88(In2Te2.994I0.006)0.04,450,0.00010572237554831416,2.955365505750475,0.3262416096001667,188675.29992156246
1918,Mn2.95Cr0.05Si4Al3,450,-0.00010491011007571216,4.357182679834529,0.12996160263296386,114333.53402887205
15882,In4Se0.1Te2.9,450,0.00032007957677706423,0.8303023309769776,0.014117373422662309,253.04850522567486
15883,In4Te3,450,0.00032897404528706934,0.6954991957073434,0.024119944337187633,338.9622922782437
15851,(SnTe)2.88(In2Te3)0.04,450,0.00010184781394590432,3.184346308561686,0.3321032494086164,226399.1407550064
505,Fe0.95Co0.05Si2-1wt%SmO2,450,-0.00019814660213013764,3.0115006593701232,0.1830716677899888,31204.579036986444
16991,Zn4Sb3,450,0.00015709092559735264,0.7645630272303241,0.5886440134920378,35305.11157541384
504,Fe0.95Co0.05Si2,450,-0.00021072752317750432,5.364068131988269,0.0624489395691022,16763.48516749442
16992,(Zn0.9975Ge0.0025)4Sb3,450,0.00018270530719182457,0.738416070432084,0.8132777680304355,36429.76792310606
16993,(Zn0.995Ge0.005)4Sb3,450,0.00016444281230561226,0.7696653070058329,0.6833193852194059,37455.82542241712
16994,(Zn0.99Ge0.01)4Sb3,450,0.00016816700634538704,0.7867710677331651,0.7105581052859709,38197.780529368174
499,Fe0.98Co0.02Si2-SiC-2mass%Cu-3mass%Si,450,-0.00029805686149159973,5.131183959404293,0.04685722837630815,6014.276900378695
16995,(Zn0.985Ge0.015)4Sb3,450,0.00016049289664894843,0.7936075474817315,0.6574182589956208,37231.550731334086
17004,Zn4Sb3,450,0.00015578626244612992,0.8715846557727965,0.3669885031163382,26729.969620380994
506,Fe0.95Co0.05Si2-10wt%SmO2,450,-0.0001888475541647829,3.742373245180587,0.10919211809411704,25462.623434981688
17005,(Zn0.999Gd0.001)4Sb3,450,0.0001575541922775244,0.8534934492642026,0.4466887876724368,31092.791288761924
17007,(Zn0.997Gd0.003)4Sb3,450,0.00015564098846832696,0.7930079654356516,0.5083512070152679,32779.39031521665
17008,Zn4Sb3,450,0.00015425346470054318,1.0985298872197573,0.3487641623846229,32260.53260093104
17009,(Zn0.005Nb0.995)4Sb3,450,0.00015331353071515281,0.7232720064250061,0.5793543593990921,35022.445806642325
17010,(Zn0.01Nb0.99)4Sb3,450,0.0002302192090463842,0.7343548327490311,0.3746489489877605,11045.574256190357
498,Fe0.98Co0.02Si2-SiC-5mass%Cu,450,-0.00012789701569670912,5.1272245881402885,0.017622192603065485,12274.64524527069
496,Fe0.98Co0.02Si2-Sic-2mass%Cu,450,-0.000246582722297392,4.739462645790488,0.033165465101366566,5744.832850823604
495,Fe0.98Co0.02Si2-SiC-Cu2mass%,450,-0.00025329277380046496,4.713079181690857,0.030117885593257614,4916.670471534897
17006,(Zn0.998Gd0.002)4Sb3,450,0.00015450227512148315,0.7163605944518459,0.6981264773912789,42270.498569272386
494,Fe0.98Co0.02Si2-SiC,450,-0.00039336127434608,4.158775285631259,0.06359753156527484,3798.4813263055134
507,Fe0.95Co0.05Si2-1wt%Er2O3,450,-0.00018561113925325977,2.2277019925035497,0.19839371422044252,28507.846710151935
16975,Zn4Sb3 ,450,0.00016045107933427763,0.7391223507860939,0.5971871803999252,38410.28196325748
16979,Zn4Sb3,450,0.0001639526936866394,0.7439869102582991,0.6643107876775252,38268.590121196175
16980,Zn4Sb3,450,0.00016827956452401626,0.7494711383089923,0.6311595612606498,36151.10052682844
493,Fe0.98Co0.02Si2,450,-0.00017127903534669658,5.172105277352494,0.012604476785288407,4938.22926195534
17057,(GeTe)90(Ag0.6Sb1.4Te1.8)10,450,0.00014283172110220182,1.971491725467572,0.4955041069130436,99730.1391277098
17058,(GeTe)90(Ag0.7Sb1.3Te2.3)10,450,0.0001414512512169924,1.93817013943449,0.5324704754015401,105432.58163087202
17059,(GeTe)90(Ag0.8Sb1.2Te2.2)10,450,0.00013203278173939462,2.021045041808964,0.5281154476941906,126345.02707001985
489,Fe0.98Mn0.02Si2,450,0.00025114822064867997,8.477470459632213,0.013697275218578431,4090.9836355806974
17060,(GeTe)90(AgSb6Te2)10,450,0.00010526579135620304,2.5107465065000847,0.3879857263242067,172685.43652368805
17061,(Ag2Te)54(Sb2Te3)46,450,0.0002795380305535709,0.5291103215052305,0.6119802365729778,9711.781613872528
17062,(Ag2Te)52(Sb2Te3)48,450,0.000279705528634471,0.5524024073739624,0.7939380326748472,13045.540614860478
17063,(Ag2Te)50(Sb2Te3)50,450,0.0002795915449620354,0.5584800312222507,0.8440105514195235,13639.349184742343
17064,(Ag2Te)48(Sb2Te3)52,450,0.00025570861238824217,0.5773937655420847,0.8880848290116347,17403.024291604117
17065, (Ag2Te)46(Sb2Te3)54,450,0.00021888087547719618,0.593603980676715,0.8724658333393798,23984.520288615702