sampleid,composition,Temperature,Seebeck coefficient,Thermal conductivity,ZT,Electrical conductivity
15005,(CuInTe2)0.985(2ZnTe)0.015,400,0.0002006695850424921,3.5352371368430657,0.1215359599824548,22938.371623430165
13187,Eu5In1.95Zn0.05Sb6,400,0.0001856379621318708,0.9796368455835011,0.1157234488368778,7424.035727051994
13191,[CoSb2(GeTe)0.5](GeTe)10.5Sb2Te3,400,0.00010074423666274411,1.4395155985340142,0.10158050121603124,38070.55957967707
4618,La0.3Co3.68Ni0.32Sb11.84Te0.16,400,-0.00014700989101852914,2.1047132040631,0.28338658486923585,67077.10026315752
9483,(CoGe2)0.15(GeTe)12Sb2Te3,400,0.00019268408710219052,1.4032423544180552,0.3449746384035558,34167.639141675216
14998,Ag2Te,400,-9.177759705169836e-05,1.2097590948525778,0.24591838602798416,88299.15326158145
14999,Cu2ZnSnSe4,400,9.17193819116802e-05,1.4734923580483892,0.03553786746828713,16604.45236457375
15000,Cu2ZnSnSe4,400,5.889037294692179e-05,1.6816479663269202,0.03075093823514652,40925.268685595336
13189,Eu5In1.8Zn0.2Sb6,400,0.00015269082514111378,1.047421090063225,0.10866519546217328,11402.570730537309
14060,Mg0.9925Na0.0075Ag0.97Sb0.99,400,0.00022520139377512838,0.828400159362314,1.0162351620105856,41190.65699105457
13832,Sb2Te3(GeTe)7,400,8.302970567695519e-05,1.0213475208709868,0.07218301257440228,22687.983953188734
14195,Tl9BiTe6,400,0.0002426050334078141,0.4110439711224661,0.7098053237893585,13089.83712149413
14196,Tl9Bi0.95Sn0.05Te6,400,0.00017957709956413468,0.5081270381336347,0.6450211511585617,25107.996290784766
5992,YbZn2Sb2,400,5.879612936023533e-05,3.3646513012835384,0.08690005000714268,185917.05295842944
14197,Tl9Bi0.9Sn0.1Te6,400,0.0001528235600295204,0.5437588602575995,0.560241569019041,31582.96727140357
14198,Tl9Bi0.85Sn0.15Te6,400,0.0001333728138193687,0.6586398178635797,0.4482040237619056,39182.00477284472
9355,Bi0.5Sb1.5Te3,400,0.00020912467365957144,0.8933780045517954,0.3841095506211076,20485.191480011945
9356,Mg2Si0.9Sb0.1,400,-9.868505874180936e-05,2.7535320171916284,0.09389251134436624,65498.187396918074
14199,Tl9BiTe6,400,0.00024018336410886016,0.41599478177424415,0.7058001258765716,14078.64624193818
5309,CoSb3,400,0.00014387350693141818,4.800834242504057,0.3484801095316228,202056.60670388164
5311,CoSb3,400,0.00014710572985961434,5.082142648381527,0.27978810263437104,164269.49594401818
5991,YbCd0.4Zn1.6Sb2,400,6.273032278074564e-05,2.4691178115343613,0.13761236635663304,173344.22534822245
5310,CoSb3,400,0.00011799047414128216,5.1811258883081575,0.16203581474512432,150758.31607394095
14192,CuIn0.98Cd0.02Te2,400,0.00020843644741840543,3.9382139668767895,0.1049712879547155,21028.687988135294
14193,CuIn0.95Cd0.05Te2,400,0.00017385057930645068,3.5124086501813605,0.09688691785369173,23783.38568392464
14194,CuIn0.9Cd0.1Te2,400,0.00014002964082529602,3.215907622526556,0.10520308654046852,38475.19518918409
14209,Tl9Sb0.95Pb0.05Te6,400,0.00012775828305112982,0.6589810941258986,0.4557054841470029,46860.6768357683
5232,La0.6Fe2Co2Sb12,400,0.00015178982893368666,1.8679840512966177,0.25658631922492336,46842.546300838105
14210,Tl9Sb0.9Pb0.1Te6,400,0.00011204716835751892,0.7254200221527124,0.3886087872938436,54317.625551060184
11939,GdPdBi,400,8.691272108494196e-05,4.462996075345197,0.07919231969398098,115226.96163019152
5231,La0.9Fe3CoSb12,400,0.0001189770728226331,2.308143300956356,0.2800978189056547,105876.99036050012
11027,NiZrSn0.95Sb0.05,400,-4.1435082222521095e-05,12.829537616473914,0.01324745312678217,281203.8763648625
9358,Mg2Si0.975Sb0.025,400,-8.592332068186879e-05,5.024051190778885,0.09551758939016104,146237.06270020432
14208,Tl9Sb0.97Pb0.03Te6,400,0.00013226717900673347,0.6878828639410275,0.4447127120599834,43751.28272824852
14200,Tl9Bi0.95Pb0.05Te6,400,0.00015767620487487028,0.4867583369648568,0.6576847387650784,35375.140786054544
11938,LaPdBi,400,7.236246421808643e-05,4.754389047664093,0.08299725614813733,173325.52113456983
14201,Tl9Bi0.9Pb0.1Te6,400,0.0001309775614517745,0.6876225887869684,0.5217138286447563,52511.65856224274
14202,Tl9Bi0.85Pb0.15Te6,400,0.00012082535828378453,0.7509864310909631,0.4550937067424855,59326.829308230124
14203,Tl9SbTe6,400,0.00014740514321075814,0.5998653253165391,0.5372150083081312,36742.94871758336
14204,Tl9Sb0.97Sn0.03Te6,400,0.00014862697326044154,0.5828793156548235,0.5221731383471637,33887.31434086565
5233,La0.3FeCo3Sb12,400,0.00010214604025917408,2.6798706474160787,0.07556619112370629,40097.673000412586
14206,Tl9Sb0.9Sn0.1Te6,400,0.00012883787308129175,0.6379509937243564,0.4581088583955989,41742.35611005957
13449,Ca2.85Na0.15AlSb3,400,0.00014299756443596188,1.2985589353126656,0.035409535768981225,5621.660644745941
14205,Tl9Sb0.95Sn0.05Te6,400,0.00014583452595574986,0.6239916746122608,0.4355674858485078,31794.651479497516
14207,Tl9SbTe6,400,0.00014915011795767162,0.6022782946893083,0.5352725391576773,36300.6622530697
14174,Ag0.98Cu0.02TlTe,400,0.0004506350434656341,0.3854963867738204,0.1216174819235124,465.4042195276802
5988,YbCd1.2Zn0.8Sb2,400,9.591208607187642e-05,1.719253850809075,0.2216503151459712,94213.59481947537
14147,Bi2Te2.85Se0.3,400,-0.00014644587788375163,1.3019080442579225,0.4672513086000719,70940.45998485558
14005,Cu2Se1.01,400,0.00010617690710399094,1.0243064914763051,0.3656528891901698,83362.46107621117
14148,Bi2Te2.85Se0.3,400,-0.00016293464303271797,1.2176794705555525,0.5174559054429391,59758.77196422181
14149,CufeInTe3,400,-0.000396318289966285,3.740810970739961,0.10466152443285498,6282.950447537607
14004,Cu2Se1.01,400,0.0001054951339120255,0.9978682460354624,0.3934545929793485,83454.41950036927
5987,YbCd1.6Zn0.4Sb2,400,0.00012101258920143403,1.6213965513587203,0.3669680187360289,96302.637745286
14166,Tl2GeTe3,400,0.00021662312617802548,0.28667459089981384,0.21695496761535868,3236.549482252255
11064,Al2CrCoFeNi + 5 wt.% Sc,400,-1.5256828792496158e-05,12.171405671480105,0.006111251516869183,736796.6437214587
5990,YbCd0.8Zn1.2Sb2,400,7.159240319245917e-05,1.865691368212376,0.14973949817068175,127973.20751501324
11050,9.104 × 10−3 mol % PbI2-doped PbTe,400,-0.0001857174318197656,1.8065026553309904,0.7349561090648491,114334.21936829154
5989,YbCdZnSb2,400,9.003013770580893e-05,1.8730536848722308,0.22592309763269205,121125.9547561108
14177,Ag0.8Cu0.2TlTe,400,0.00043727056154893015,0.3547194904942439,0.15441604985554624,583.9505308657908
11808,Cu2CdSnSe4,400,0.00035426840816395086,2.496439861374528,0.015515618811091703,853.4295963076642
14178,Ag0.7Cu0.3TlTe,400,0.0003747897085587525,0.34876769231031585,0.23720925733969844,1335.6062108107756
14179,Ag0.6Cu0.4TlTe,400,0.0003128654064157848,0.3778409981228112,0.3053351085603261,2842.986465828687
14263,Cu2ZnSnSe4,400,0.00033723043368825333,2.2336279513548325,0.0040794999987388,171.09622270393174
14264,Cu2.15Zn0.85SnSe4,400,9.755996239683466e-05,1.8866639088982642,0.0473845817909358,20785.24218492654
11011,Fe3Si,400,-1.2891938341645576e-05,21.012127128978705,0.004419455251337304,1329869.121180551
14265,Cu2.2Zn0.8SnSe4,400,0.00012326226526907915,1.4332622773603043,0.06096211671760742,11614.790937277827
13551,In4Se2.32I0.03,400,-0.00028637314800761656,0.904575690800514,0.5105393778892209,14697.237378915112
11012,Fe2.8V0.2Si,400,1.7317877801233926e-05,12.33819906162225,0.004835519952079682,573755.933695089
14250,TlGdTe2,400,9.592618548836049e-05,0.4851557485303794,0.3186267693237855,42714.262467237255
13556,Cu1.4Bi4.85Se8,400,-0.00011459486457971421,0.5727776042768504,0.173519407011634,18577.33077515639
14283,CuIn0.95Mn0.05Se2,400,0.00039765642732836467,3.2046727950342278,0.007488719473730192,321.41014034707865
6001,Yb0.98Zn2Sb2,400,6.615773494538238e-05,3.3859952269795284,0.13979655531843554,245897.34480956316
13555,Cu1.3Bi4.90Se8,400,-0.00010388385661940046,0.656570068366525,0.15939853176868762,23226.378779409086
14271,Sb2Te3,400,0.00017464847813071299,1.404344927915992,0.5668106697351407,60594.73399394553
11024,NiZrSn0.99Sb0.01,400,-5.743049787844042e-05,14.124292833994582,0.022393110796014727,259974.105638828
11309,Cu3Sb0.995Ga0.005Se4,400,0.00027100467093453523,2.047696532906886,0.09900206266148054,5796.537488408427
14224,Mg2Ge0.98Sb0.02,400,-4.773000113589276e-05,9.949792341259837,0.04727739946809282,516207.9823009896
14223,Mg2ge0.98Bi0.02,400,-0.0002462615453976016,3.729809858588518,0.7414797446188763,114007.33446873925
11026,NiZrSn0.97Sb0.03,400,-4.988699343359524e-05,11.838156581002558,0.02037547208243664,288546.37296046497
5995,Eu11Cd6Sb12,400,0.0001343985133338984,0.7452635396518376,0.1133883547976693,11164.127075730075
5230,LaFe4Sb12,400,9.351945721632675e-05,3.1309812254360643,0.21941891195742894,184068.4524741213
11025,NiZrSn0.98Sb0.02,400,-4.989946782782794e-05,13.722917586702211,0.021674221473218763,341145.79894711357
11015,Fe2.08V0.92Si,400,-5.277057284431774e-05,9.035885182441415,0.05215361962772439,408011.3757195103
14244,IrSn1.5Te1.5,400,0.0001614850221274597,3.1583917966285067,0.07772830483582358,25597.642773588905
5224,In0.3Co4Sb12,400,-0.0001574200291078604,3.04733245852096,0.5096138736310789,171993.10093278074
5223,In0.3Co4Sb12,400,-0.0001778577187560077,3.1277525117206095,0.4953675560033649,122110.7011632118
13549,In4Se2.32Cl0.03,400,-0.00015258071694047978,1.1544925081417523,0.3111795617814402,40859.76222736208
5997,Eu11Cd6Sb10As2,400,8.930101543918241e-05,0.7201276478795844,0.04732074983130772,9560.788472936596
13972,Cu2ZnGeSe3S,400,0.00041425097510336113,1.8153056528210136,0.00446768076665592,118.15301911650472
13550,In4Se2.32Br0.03,400,-0.00021523962713831935,1.0184360635986252,0.5276704148834699,30674.976002239626
13971,Cu2ZnGeSe4,400,0.0003074790078157209,2.042492399878847,0.00517831591210766,279.6778405274599
14243,RhSn1.5Te1.5,400,0.00011665892224088565,4.096766895384451,0.10065698920191933,88872.60189584512
5996,Eu11Cd6Sb11As,400,0.00011599448026785393,0.7257164605182886,0.1051065290561809,13378.275974226128
11308,Cu3SbSe4,400,0.00037469142794281277,2.488727015660009,0.0730719633331336,2985.2202552698145
13977,Cu7PSe6,400,0.00014935018291776858,0.3338306326629875,0.05126896147745028,1918.2676232873675
11014,Fe2.2V0.8Si,400,-5.1387949158057876e-05,8.65758624586689,0.04280574199080163,366973.48073640274
14146,Bi2Te2.85Se0.3,400,-0.00015241548785177014,1.3500296186059002,0.4533204938486717,69848.33219950713
13525,Nd0.96Sr0.04OZnSb,400,0.00011498200292918846,2.009814208537565,0.030555191571115425,10886.35122994625
13496,K2Bi8Se7S6,400,-0.00013675222080517806,0.574224448033419,0.21254158880264676,17273.678803558792
14042,AgSn4SbTe6,400,0.0001001562792499381,1.921272687881584,0.3532423000539692,165146.57708616534
13526,Nd0.94Sr0.06OZnSb,400,0.00012226595168365122,1.782105422340703,0.042149492589160266,12174.17244666792
5981,Ns0.5Yb0.5Fe3CoSb12,400,0.00012108191421438653,1.7890496988328664,0.4124295391930286,118611.87620423858
14041,AgSn10SbTe12,400,8.05995147403769e-05,2.3835500468495994,0.22303909347460685,199987.27642476207
13495,K2Bi8Se9S4,400,-0.00014049898902826358,0.4905596119608077,0.25342531416633385,15874.007296518164
13527,Nd0.95Sr0.05OZnSb,400,0.00011076811278496013,2.0373411547071685,0.031569714364314896,12567.25027126891
14043,AgSn2SbTe4,400,8.809323792854934e-05,1.5839350944672057,0.29751578989586314,146822.10344879545
13497,K2Bi8Se5S8,400,-0.0002167379207549083,0.4621908163754255,0.23194453019232164,5743.2758904614975
13524,Nd0.97Sr0.03OZnSb,400,0.00012695847090617943,1.9186396876044376,0.033696080795351364,9334.079614275466
14104,Tl9.0.5La0.95Te6,400,0.00010941340934401049,0.5596259180914046,0.20875594787787072,25551.751447524963
14105,Tl9LaTe6,400,0.0001587007564324887,0.38334007450033336,0.3297234991709885,13908.398325564129
14106,Tl8.95La1.05Te6,400,0.0002034809908336579,0.32712281872692994,0.3054812795231172,6681.614030209266
11092,EuCd2Sb2,400,0.0002616417836429727,1.125989564985734,0.2467639241226346,9562.519504286534
14036,(Pb0.8Yb0.2Te)0.15(GeTe)0.85,400,5.879146583389956e-05,3.7926500233726537,0.10018788892382537,237907.75237400105
5982,Nd0.6Yb0.4Fe3CoSb12,400,0.00012374384391666203,1.7757486904746256,0.432984000254376,117077.24647508349
14103,Tl9.1La0.9Te6 ,400,8.974923988617063e-05,0.6760544077995136,0.15925901973039602,34661.55374362891
14102,Tl9TbTe6,400,6.92589125973879e-05,0.958347743559814,0.14906538422634685,75492.72237418097
14096,Tl9LaTe6 ,400,0.00015790581854664598,0.3787182330122364,0.33046486466209113,13803.418746525671
14097,Tl9CeTe6,400,0.00011661328499488059,0.471588160498639,0.2941707775371558,26728.88818845985
13494,K2Bi8Se13,400,-0.00021180882580698414,0.3343661533070457,0.2783032199892561,5059.363904559377
14098,Tl9PrTe6,400,0.00010474219143697988,0.568214514250368,0.28858823949965484,39686.72419930117
13523,Nd0.98Sr0.02OZnSb,400,0.000148693811767647,1.5065821975872793,0.039450207436093364,6212.581674620849
13528,Nd0.92Sr0.08OZnSb,400,0.00011068789344947993,2.114085482890108,0.035088266932793134,14558.249956383495
13529,Nd0.93Sr0.07OZnSb,400,0.00010597010589005264,1.9415489333001392,0.04023191939746969,16883.75832129826
14100,Tl9SmTe6,400,7.392341972577287e-05,0.909254779522116,0.15921296061892842,68291.44100258559
14101,Tl9GdTe6,400,7.848702119900651e-05,0.8315958210312628,0.19226788451549934,63394.69892820142
14099,Tl9NdTe6,400,9.07058133080473e-05,0.6844825096982058,0.22339793577740305,48409.63443566894
14035,(Pb0.85Yb0.15Te)0.15(GeTe)0.85,400,5.773542908041432e-05,3.618870007681591,0.10746655072612464,243189.13477252112
14070,In4Se2.35,400,-0.0003291980553569568,0.9681183653638024,0.05277022051529726,1178.5360031878795
14057,AgPb18SbSe19.73Cl0.27,400,-0.00014183322754908218,1.291413478033507,0.3507340991817475,49202.00317897615
5621,,400,-0.0001392536674036026,0.7713237662716671,0.4611237834524019,44534.213655681815
14056,AgPb18SbSe19.856Cl0.144,400,-0.00013428117463210807,1.3225053521642764,0.33442049317053224,49416.704126434335
14061,Mg0.99Na0.01Ag0.97Sb0.99,400,0.00023274010151014184,0.83201910779841,0.9972879063255592,37621.76719573239
14059,Mg0.995Na0.005Ag0.97Sb0.99,400,0.00023656749701004198,0.8218495845549231,1.0081908419605805,34440.221691766914
14064,Bi2Se3,400,-9.005898191335821e-05,0.4261902836696132,0.14522152022140614,17762.668251834064
14058,MgAg0.97Sb0.99,400,0.0002533540414768585,0.8003122433342664,0.9681566268066644,29533.45265666786
14069,In4Se2.35,400,-0.0003340072573752103,1.3780473582380732,0.012171808245000346,375.8784667922634
13521,NdOZnSb,400,0.00025701712333417654,1.2754218306946483,0.02692554528099413,1175.155831937021
14050,(Ge0.8Pb0.2)0.9Mn0.1Te,400,9.417894251190509e-05,1.769186341594047,0.26523429300574697,115140.39212046533
5979,Nd0.3Yb0.7Fe3CoSb12,400,0.00010968737479393437,1.8376793138587424,0.3778343451067712,136078.22563922324
14049,(Ge0.8Pb0.2)0.92Mn0.08Te,400,8.678524513439632e-05,2.0259102162865608,0.20942056357029906,123329.20194306047
13522,Nd0.99Sr0.01OZnSb,400,0.00015957949486123868,1.4154981681322452,0.0376281979896813,4918.082708730645
14048,(Ge0.8Pb0.2)0.95Mn0.05Te,400,7.607926352800083e-05,2.258543194235959,0.20770322980618272,162442.5456006231
14051,Ge0.8Pb0.2)0.87Mn0.13Te,400,9.748605122068104e-05,1.5131187891724525,0.29424557720235056,104007.4821671958
14052,(Ge0.8Pb0.2)0.82Mn0.18Te,400,0.0001311816777563074,1.3723801675535905,0.3733337571318396,68543.51165980901
13506,K2Bi8Se7S6,400,-0.00013771906311624198,0.574383846388629,0.2120045597783864,17263.117311702546
5980,Nd0.4Yb0.6Fe3CoSb12,400,0.00011454188122428342,1.8212525646497035,0.4008710946375895,132638.1973861648
5978,Nd0.3Yb0.7Fe3CoSb12,400,9.469134082819517e-05,2.2460071267042387,0.2469279387181809,143564.93217715915
14284,CuIn0.9Mn0.1Se2,400,0.00046028273329197733,3.204036801633656,0.007398825034231747,249.34860406152058
14122, CuIn0.75Ga0.25Te2 ,400,0.00019251238606205325,46.121687912660725,0.00591967825596689,18300.5687517753
13400,Cu2Mn0.02Sn0.98Se3,400,6.807548439682986e-05,3.2936675295148303,0.06779224420543176,127398.02917448163
14123,CuIn0.65Ga0.35Te2,400,0.0001584838621857999,42.20914515587164,0.006954148467671749,32726.06558397832
11292,[BS]:[BT] = 1:9,400,-0.0001753305659927507,0.5964865837937112,0.5742554731781813,27030.721812876152
14121,CuInTe2 ,400,0.0001850238258925309,51.581190799587965,0.005195189848266696,20646.487417719367
13399,Cu2Mn0.01Sn0.99Se3,400,6.958566816540447e-05,2.9298675409862613,0.08883900261997563,122332.29946641404
13401,Cu2Mn0.05Sn0.95Se3,400,5.215452113651541e-05,3.450373775409677,0.06004615496781787,199332.6761789372
9274,Sn0.99Na0.01Se,400,0.0002502181649292162,1.5437241801960668,0.4169662981704937,28349.003758698294
11810,Cu2CdSnSe4,400,0.0001835627300290769,1.7733818767584593,0.04366920904895155,5902.187249096601
11296,Cu2Se,400,3.8286843191551946e-05,3.772233903100968,0.04367884293013119,257110.83434766784
14008,Cu2Se,400,0.00014518995377271084,0.7136771232810749,0.5694284215280833,47741.30891653191
14007,Cu2Se1.01,400,0.00010903479379555976,0.8821253433761367,0.4139649466212867,74949.79034887356
14142,Bi2Te2.85Se0.3,400,-0.0001768716740072383,1.0645714626164515,0.5795532409153575,52670.710853589255
5986,YbCd2Sb2,400,0.00014340689676324166,1.6804400413205043,0.2196657321749869,41200.10404140841
14143,Bi2Te2.85Se0.3,400,-0.00017586165745356962,0.6720735741980515,0.3924085138149667,21278.889678195243
14006,Cu2Se1.01,400,0.00010404392489790404,0.9396643870979045,0.3702431440833063,85842.5071944108
14144,Bi2Te2.85Se0.3,400,-0.0001792582874377636,0.839857146079767,0.4881989516305619,34614.43674573862
14145,Bi2Te2.85Se0.3,400,-0.00017166224857610368,1.137564212804147,0.5519877651866409,54033.647089756814
11809,Cu2CdSnSe4,400,0.00023301757097382545,1.6385781930853829,0.03897330471970911,3300.9568963136776
14009,Cu2Se1.02,400,8.184243642687304e-05,1.5292531378318792,0.21368415278641512,128630.18235323635
11293,[BS]:[BT] = 1:4,400,-0.00019257059953334675,0.5657220459593507,0.6298151643937877,23625.68548786028
11294,Bi2Se3,400,-5.898711622695197e-05,0.5540636012759592,0.052212132870685865,19470.949681884144
11091,PbTe 4GPa,400,-0.00020466601839006898,2.2151455198798318,0.3107365587722188,41081.2018500898
14032,(Pb0.97Yb0.03Te)0.15(GeTe)0.85,400,7.045218914023834e-05,3.310895165988127,0.15952846479169813,232275.2153078223
14031,(Pb0.99Yb0.01Te)0.15(GeTe)0.85,400,6.807337477020522e-05,3.9298645851493186,0.13213159780968642,241804.82093759638
9344,SnSe0.95-0.1%BiCl3,400,-0.00021516184440401092,1.1410107136935892,0.019197454213663867,1380.1392462362344
14030,(Pb1Te)0.15(GeTe)0.85,400,5.718891508307973e-05,4.347214693354175,0.10150102227923392,270402.4615818856
13534,Cu2.95SbSe4,400,0.00037970891645963884,1.9141694398504625,0.15498842138239272,4644.6041359627425
9345,SnSe0.95-0.2%BiCl3,400,-0.000210331752614626,1.1623842608117814,0.021617640015711537,1581.9604638889057
11090,PbTe 2GPa ,400,-0.0002910614632816892,1.8693287358878856,0.24361900843062564,13439.01520319809
11089,PbTe 0 GPa,400,0.0002563842982718431,2.0858193931675317,0.06660737886700092,5283.919651124004
14033,(Pb0.95Yb0.05Te)0.15(GeTe)0.85,400,6.947546301074802e-05,3.266993478202885,0.15531096860144675,234777.22115888892
9343,SnSe0.95-0%BiCl3,400,-0.00011778931027801753,1.4597025516712183,0.0005139899556522165,142.9861842749026
13535,Cu2.925SbSe4,400,0.00037190887149136383,1.8961947942272592,0.1700153524598364,4895.8782438639455
9347,SnSe0.95-0.4%BiCl3,400,-0.00020271889890796817,1.1271009676369692,0.034869468581379126,2340.2824879179043
11209,Ag33.1Pb4.3Te62.6,400,0.0003464170119990917,0.31188994949574245,0.4201320335611751,2642.3405241234
11210,Ag31.8Pb3.1Te65.1,400,0.00035545247442969857,0.4392958232461194,0.2332994847849743,2191.2791477293367
11811,Cu2CdSnSe4,400,0.00015241390051728239,2.117173282976908,0.04867644586143336,8928.93543897317
9276,Sn0.97Na0.03Se,400,0.00019646980398958756,1.3960335447285337,0.6574417439899881,64468.244446737146
5983,Nd0.7Yb0.3Fe3CoSb12,400,0.00012574434376752582,1.8430717343967742,0.3664394488682815,98911.48382412293
9275,Sn0.98Na0.02Se,400,0.00020828530108989125,1.5824606168802822,0.4301458906376848,43279.586238366006
9346,SnSe0.95-0.6%BiCl3,400,-0.0002348808800707361,1.0998374586233317,0.0389021485710852,1726.8706022217762