sampleid,composition,Temperature,Seebeck coefficient,Thermal conductivity,ZT,Electrical conductivity
540,Ba24Ga4Ag2Ge94,400,-3.603847105743453e-05,2.4185127103628603,0.034330812270229605,164187.57304837517
16855,ZnSb ,400,0.0003320874671245327,1.4422681206717254,0.12786228793230378,4180.4546120917075
10190,Fe0.98Co0.02Si2,400,-0.0002547188337852987,6.102988159092373,0.01634677259244656,3844.0802158025126
539,Ba24Ga4Ag1Ge95,400,-3.370267169654928e-05,2.5296482930299677,0.029279964015212163,172041.38454504492
16860,ZnSb,400,0.00033173952734848563,1.437678497666062,0.14095063254743212,4215.994695335815
12643,WOx here x is 2.95.Matrial family tungsten oxide,400,-4.2729787493551173e-05,3.2572709873653185,0.005650720567134105,28623.90038379721
10189,Fe0.94Co0.06Si2.00,400,-0.0001688305008751469,3.207391496327896,0.05488877024752119,15958.588059067719
10087,MnSi1.73,400,0.00015112235337736842,2.5731125202291647,0.1118461171624433,31503.75216341581
538,Ba24Ga4Ag0Ge96,400,-3.0282956524779223e-05,2.8673785864966512,0.022717239922534785,190697.91618044823
6394,Ca2.5Sr2.5In2Sb6,400,0.0004913945145698126,0.7777864745907653,0.015763324645560017,126.93681787705091
16749,AgSn3Pb15SbTe20,400,0.0001884392799601242,1.2916298212048969,0.2806182406199543,23027.95886315813
16750,AgSn9Pb9SbTe20,400,0.00014588399699666854,1.4052761575466166,0.2941781347025664,39380.820732897366
16751,AgSn15Pb3SbTe20,400,9.473675513152656e-05,2.160965975734431,0.13075059320129606,71029.49044419179
10206,Fe0.95Cr0.05Si1.958Ge0.042,400,0.0002146002495822305,8.523954964679579,0.017111258482076487,7917.765981063056
16756,Ag0.8Pb22.5SbTe16S4,400,-0.0002709445914003856,0.9869221306983422,0.1613177250643454,4633.52973272863
16757,Ag0.8Pb22.5SbTe12S8,400,-0.00026322721331067017,1.0048433122371476,0.3555337588330129,12314.751005557828
16754,Ag0.8Pb22.5SbTe18.4S1.6,400,-0.0002631038034037207,1.148332055803221,0.18921925878719226,6567.1080283669335
6393,Ca3.75Sr1.25In2Sb6,400,0.0003846507268286137,0.7851500326462957,0.013429977882578792,178.17010846334907
16730,(Ag0.365Sb0.558Te)0.975(GeTe)0.025,400,8.503718782765075e-05,0.8327135733551784,0.2891388445561041,77306.3354068013
16732,Ag0.365Sb0.558Te,400,8.061742285611941e-05,0.976065825808992,0.2356442247246903,79270.70784034178
16735,Cu3SbSe4,400,0.00031407623234105963,1.9077583354612984,0.07699340157195789,3062.889786619417
16740,(GeTe)80(AgSbTe2)20,400,0.00014948017950053885,1.4445284150362159,0.5254805906556339,84247.19336794635
16741,(GeTe)80(Ag1.2Sb0.8Te1.8)20,400,0.00015994145427162404,1.4606550179416498,0.6438001532638828,92687.7019353682
16742,(GeTe)80(Ag1.4Sb0.6Te1.6)20,400,0.00014163444969878816,1.557647588597164,0.4378818281067723,80422.80621031413
16743,(GeTe)80(Ag0.8Sb1.2Te2.2)20,400,0.0001600832982208435,1.5616515177338617,0.5700169865577247,86232.22492338
6392,Ca5In2Sb6,400,0.0003236533675394132,0.9408378209612456,0.03948293412693713,886.5514309237857
16744,(GeTe)80(Ag0.6Sb1.4Te2.4)20,400,0.00017277761427122142,1.5855110193553994,0.5677261384883121,75948.71604175624
10207,Fe0.98Co0.02Si2,400,-0.0002452437245145532,3.9153269654665697,0.028740265860073905,4677.383928611021
16877,(Zn0.997Pr0.003)4Sb3,400,0.00014266176122757786,1.0878073277646279,0.1949990241152352,23650.489501601216
16783,Ge0.87Pb0.13Te,400,0.00012881021591295395,2.033060485218904,0.32178202032121583,106746.63398517892
12675,TiNi(1+y)Sn. Here y is 0.25,400,-9.044995623008496e-05,5.394985436680001,0.09198371239404944,145112.3169105604
16784,(GeTe)0.8(AgSbTe2)0.2,400,0.00017020803867938018,1.3215395742816969,0.7859768882312719,84775.05312630006
16785,(GeTe)0.85(AgSbTe2)0.15,400,0.00013867608134832162,1.5949701330315769,0.517011609916709,103462.56705164583
12674,TiNi(1+y)Sn. Here y is 0.075,400,-0.00016497177230070074,4.452034916146493,0.18567298687451733,63380.87903956853
16794,AgSbTe2.01,400,0.0002566129633777037,0.5261281457694004,0.9259461044588836,18185.306280963592
16795,AgCe0.005Sb0.995Te2.01,400,0.00022779259674603588,0.6046875472239659,0.6225573246721521,17623.19431479221
16796,AgCe0.01Sb0.99Te2.01,400,0.0002571805169614313,0.5722552424821047,0.7462940322653566,16602.188943251764
12671,TiNi(1+y)Sn. Here y is 0,400,-0.00021677951549648004,5.464472118124033,0.13398071614342008,33999.559469336724
16797,AgCe0.03Sb0.97Te2.01,400,0.0002637181812248377,0.598822493691657,0.6564623221862207,13921.31404072679
10198,(FeSi2)0.7(TiB2)0.3,400,-1.9073833869940175e-05,9.294136710223476,0.002111486985830455,134853.27022408962
16798,AgSbTe2,400,0.000272180306019151,0.5684520725240033,0.7335898452429591,14242.586672581814
12668,ZrCo(1-x)Pd(x)Bi here x is 0.09,400,-0.00010475175307915336,8.430644902577919,0.04641334012822866,83751.38363022599
12667,ZrCo(1-x)Pd(x)Bi here x is 0.6,400,-0.00011256215160664863,9.52037959546491,0.04567798676196547,78425.43264001232
10199,FeAl0.10Si2,400,0.0001877970263389193,10.448318004727202,0.03668070471623126,27167.31006472066
10204,Fe0.94Co0.06Si2.00,400,-0.0001581828694324126,3.6551474237200647,0.043320504761981724,17505.1181322812
6396,Sr5In2Sb6,400,0.00034540566623033464,0.9203319139763178,0.0009680255211220188,18.66862717550017
10203,(Fe0.95Cr0.05Si2)0.995u0.005,400,0.00030536777691990826,11.271204099742556,0.012492742178953258,3775.041107498342
10201,Fe0.98Co0.02Si2,400,-0.00031184397436041127,3.9776085599437185,0.03429145532414992,3506.495239428333
10202,FeAl0.05Si2,400,0.0002277023413983749,8.093203507989799,0.04932849141198144,19249.67098264425
6398,YbZn2P2,400,0.0001343230035702906,1.8025725361601064,0.03624907149557746,10493.281498866689
16882,Zn4Sb3,400,0.00015838998013437198,0.7201325869533113,0.5193027179834941,35534.95746928288
16879,Zn4Sb3,400,0.0001390861565609696,0.8539986747460327,0.4367134296562191,46750.19239467117
10169,Fe0.94Co0.06Si2.00,400,-0.0001556952513946276,3.730597329683784,0.045129076049613866,18302.331183454982
10168,Fe0.95Co0.05Si2,400,-0.00022274054743825488,7.199644069157323,0.03145408051544573,11411.151308566587
16975,Zn4Sb3 ,400,0.00014987893938176177,0.7490231931024035,0.4843060936579578,40511.14930187074
16979,Zn4Sb3,400,0.00015404015613633754,0.7492774935639888,0.5456289250763743,40313.80801338241
16964, Zn4Sb2.94In0.06,400,0.00016164222939294085,0.9193922474498926,0.2684798835723682,21796.3741935516
6415,Yb11Sb9.3Ge0.5,400,2.1839988116834963e-05,1.0728783449724486,0.009520681528687628,55717.963895356654
10091,Mn0.75r0.15Ru0.1Si1.74,400,0.00012229175977503362,2.4243333243032548,0.09533455928775804,38635.65809205421
16960,Zn4Sb3,400,0.00016320763637582325,0.8027400969781572,0.5172342383457942,31344.173110368687
10171,Fe0.94Co0.06Si2.00,400,-0.0001524012869902386,3.799966876980287,0.04507323039825119,19685.50234309101
16950,Zn4.2Sb3,400,0.00016607644669068333,1.4159446467735568,0.32854483789225863,41586.09106954102
10096,MnSi1.8,400,0.00014495793761338708,2.5974876507244917,0.12120094288953068,37455.49109593757
499,Fe0.98Co0.02Si2-SiC-2mass%Cu-3mass%Si,400,-0.00030598541289604585,5.611840083532937,0.03404413359355705,5101.361913316232
16995,(Zn0.985Ge0.015)4Sb3,400,0.00015049831675498977,0.8053775585116242,0.5530756256148266,39997.52447484994
17004,Zn4Sb3,400,0.00014673543329890633,0.8973979354552213,0.2746563504819866,26994.022245690478
17005,(Zn0.999Gd0.001)4Sb3,400,0.0001491941064305141,0.8840999678513589,0.3479207180552696,31873.153671023614
17006,(Zn0.998Gd0.002)4Sb3,400,0.00014484176449293629,0.7435461700341265,0.5561587201043824,46819.33141086371
17007,(Zn0.997Gd0.003)4Sb3,400,0.00014718816797692206,0.8152745681604696,0.4035164906819978,35045.4172991239
17008,Zn4Sb3,400,0.00014483820946234314,1.1244292613197986,0.2804444125263207,34240.863666601574
17009,(Zn0.005Nb0.995)4Sb3,400,0.00014458175229269452,0.7222168721023553,0.4660923239587748,38290.433752505734
17010,(Zn0.01Nb0.99)4Sb3,400,0.00023276489823913492,0.6999973625400318,0.33736768912102405,10601.029437881025
498,Fe0.98Co0.02Si2-SiC-5mass%Cu,400,-0.00012911592952941705,5.299052803427337,0.013722128469325535,10904.357576357575
16980,Zn4Sb3,400,0.00015945452336084274,0.7603128633000373,0.5192128793238634,37588.41842784315
16994,(Zn0.99Ge0.01)4Sb3,400,0.00016137448765483548,0.8011492505376209,0.6051535892392905,39732.4126466978
504,Fe0.95Co0.05Si2,400,-0.00020707944283164786,5.5302906888094725,0.0491653372339373,15851.59673080198
10093,MnSi1.73,400,0.00014310984658111298,2.6547975398890094,0.15663764048812998,46658.72143509312
16993,(Zn0.995Ge0.005)4Sb3,400,0.0001567406002763157,0.7829323210246405,0.5712152500825145,38963.34844741098
10094,MnSi1.75,400,0.00014393287665614724,2.2572084527502074,0.17701862126427947,48218.1584549293
507,Fe0.95Co0.05Si2-1wt%Er2O3,400,-0.00017775101779250336,2.31085528135596,0.14411405156026233,26350.866008842735
506,Fe0.95Co0.05Si2-10wt%SmO2,400,-0.0001816641705342273,3.748170159805888,0.08159819151944,23168.679427511637
505,Fe0.95Co0.05Si2-1wt%SmO2,400,-0.00019084444946428384,3.1801765675991898,0.13504038714116573,29477.85304480643
16991,Zn4Sb3,400,0.0001472909723278121,0.7775384919325007,0.4805734022163819,36630.557697133634
12407,ZrPtSn,400,3.771378584438841e-05,16.491199300616323,0.0002955651460180291,9340.520070905835
10095,MnSi1.733,400,0.00015556656981106508,2.277371327263361,0.18050725376252927,42465.472869878264
16992,(Zn0.9975Ge0.0025)4Sb3,400,0.00017665559624314062,0.7467941908185508,0.6883821234841838,37118.516158568986
508,Fe0.95co0.05Si2-10wt%Er2O3,400,-0.00020213690620057238,2.640280939583422,0.1241849677252519,20061.710049423276
16898,Bi2Se0.3Te2.7,400,-0.00016701409305626077,0.918966328970023,0.3293344058962193,27172.12670056057
10181,Fe0.95Co0.05Si2,400,-0.00014542859192275104,4.3305946450369515,0.031902769257801965,16331.133448023063
6407,Yb14Mn1.05Sb11,400,0.00011142256992010059,0.8767173794268038,0.10911820404698827,17669.282500749738
521,MnSi1.72,400,0.00014013388553949375,2.070434594792985,0.08393502731244243,22123.734215079083
6408,Yb14Mn1.15Sb11,400,0.00017193832679910878,0.8743960613515888,0.045034984933250914,3378.8892471242475
16914,AgNa0.01SbTe2,400,0.0002882790220879588,0.4676156284735957,0.7607404024819795,10662.14544063451
16915,Ag0.99Na0.01SbTe2,400,0.0002803303640701764,0.5564304977779764,0.7834842642299154,13528.934414344916
16916,AgNa0.01SbTe2Se0.04,400,0.0002580159475231062,0.6051189365142976,0.7459863729345383,16757.396048278704
10179,(FeSi2)0.825(TiB2)0.175,400,-8.048557194857012e-05,6.454472996467077,0.014465083028462706,36031.775131134935
16917,Ag0.99Na0.01SbTe1.96Se0.04,400,0.0002719661865090654,0.5468722681735795,0.7529825568436799,13789.342952140983
16880,Zn4Sb3,400,0.00014602624632665444,0.8508348268928435,0.4552585570155662,43715.09256192106
10184,(FeSi2)0.745(TiB2)0.255,400,-2.1816777846518684e-05,8.386317510810459,0.002759448969193617,121549.29884633735
525,MnSi1.74Al0.005,400,0.0001622572639650297,2.511031647326924,0.12362185488687726,29476.719836996454
16881,Zn4Sb3,400,0.00015660487663325039,0.7367667303603272,0.4902217096444412,35090.23183921405
16878,Zn4Sb3,400,0.00013411337998738433,1.0605789298395298,0.3684561015689016,54157.15258972794
6403,EuCd1.8Mn0.2Sb2,400,0.000304115125952331,1.1069465962318772,0.09787393205553273,2675.410243155636
524,MnSi1.72Al0.005,400,0.00015662002182117513,2.540275540991921,0.11198146074000273,28991.61464199313
16893,Zn4Sb3,400,0.00013326007714240066,0.7442300999562766,0.4705078459038433,49520.318400930446
6406,Yb14MnSb11,400,8.843847112862955e-05,0.9743696195074271,0.06315190190190195,18520.859969061017
6404,EuCd1.6Mn0.4Sb2,400,0.0003340381012714732,1.0114981308551936,0.0802735292780313,1700.6291915668514
16894,(Zn0.995Pb0.005)4Sb3,400,0.00014525860785607718,0.8177467128365168,0.5892647994917488,57165.24132112696
16895,(Zn0.99Pb0.01)4Sb3,400,0.00013922018923978935,0.8084224750859859,0.5052710295509429,52681.454579973586
16896,(Zn0.985Pb0.015)4Sb3,400,0.00013967989808496564,0.7832800567681041,0.5131657461863295,52329.66156086422
16897,(Zn0.98Pb0.02)4Sb3,400,0.00012631748117370738,0.6836813253254423,0.3463390914020525,35158.871947440595
6405,EuCd1.4Mn0.6Sb2,400,0.00011584890386465324,1.1015742109530966,0.012028746223027992,2409.306655538184
522,MnSi1.73,400,0.0001401339548575128,2.415121764009081,0.0902538032394272,27749.668188034357
10182,(FeSi2)0.8(TiB2)0.2,400,-5.5228836648792564e-05,7.472330443889483,0.009163466800010744,56120.831630976034
16899,Ce0.2Bi1.8Se0.3Te2.7,400,-0.0001487073010202324,0.6138130203893768,0.6667476974176592,48642.304453820165
523,MnSi1.74,400,0.00014774638529966582,2.3271180706372725,0.08531044012187176,22736.67117511545
16949,Zn3.9Sb3,400,0.00016295041511180583,1.5655434991858326,0.17192543499815974,23512.75120106724
16943,AgPb20SbTe20+2vol.%SiC,400,-0.00036629791414800926,0.715319947434543,0.09147342603557718,982.6381389968136
16944,AgSbTe2,400,0.00027368212734092613,0.5651736260182444,0.7383241246109888,14156.842712397925
6414,Mg3Sb1.7Pb0.3,400,0.000198596195111686,0.4804757923954143,0.08995808151008597,2754.0638660385357
16945,AgSbSe0.01Te1.99,400,0.0002792314487174623,0.5451258902100851,0.81454818381843,14001.262532704628
16946, AgSbSe0.02Te1.98,400,0.0002608627089134763,0.5670736628606704,0.8288141155032669,17167.289474678175
16947,AgSbSe0.04Te1.96,400,0.0002452528008371414,0.5726995833603565,0.6977540569257596,17183.528185178126
16948,Zn3.6Sb3,400,0.00018601032621289623,2.047552217117848,0.09772087504508917,13042.204053030651
16942,AgPb20SbTe20+1vol.%SiC,400,-0.00034364035787377346,0.8492435727818074,0.23154443293007645,3712.1769694454997
16918,(Ag2Te)54(Sb2Te3)46,400,0.00024036697437234883,0.4916841731847961,0.2618632672629813,5509.900673843821
16919,(Ag2Te)52(Sb2Te3)48,400,0.0002495463673856345,0.5865436050494262,0.7833482239062348,18378.650302477112
16920,(Ag2Te)50(Sb2Te3)50,400,0.00022601303982541427,0.5748006553393383,1.0085759283983555,27870.826318938267
16921,(Ag2Te)48(Sb2Te3)52,400,0.0002277364931729083,0.6069442462580592,0.9171898946738049,26805.329400061117
16922,(Ag2Te)46(Sb2Te3)54,400,0.00019647901427655607,0.8730283349910227,0.469359257286848,26695.73938409108
16923, (Ag2Te)44(Sb2Te3)56,400,0.00021186668485792483,0.7281705388675352,0.7790725952394161,31376.97246547565
10178,Fe0.98Co0.02Si2,400,-0.000293257890464968,4.911005843418541,0.02627457012344692,3750.996565515896
16924,Zn4Sb3,400,0.00015794085753293366,0.6504683836466496,0.4198533707703049,25750.318517744283
16926,Pb0.02Zn4Sb3,400,0.00015983433892188402,0.6643659400275925,0.5850085782075038,37438.797001152576
16927,Ag0.02Zn4Sb3,400,0.00012411047611019768,1.2583405570211357,0.2912200392150682,56203.54600264414
6411,Mg3Sb1.95Pb0.05,400,0.0002341132250285248,1.0284753069634751,0.035476798389962205,1737.6624155573966
16928,Ag6.52Sb6.52Ge36.96Te50.00,400,0.00011004898348846255,1.5571281651784723,0.4312800634178777,124184.78336445172
16929,Ag6.52Sb6.52Ge36.96Te49.00Yb1.00,400,0.00012331875153803756,1.5299419765379925,0.5376757426951317,121164.51919929602
10177,(FeSi2)0.85(TiB2)0.15,400,-0.00010069411615521179,6.314630050419325,0.019903834237628187,30989.6362336832
16930,Ag6.52Sb6.52Ge36.96Te49.00Ce1.00,400,0.00012377141552490664,1.5440051700172637,0.5322479329767936,120197.10328719283
6412,Mg3Sb1.9Pb0.1,400,0.00022901561207844365,0.8909148816281487,0.03993086398799939,1828.7415486051693
16925,In0.02Zn4Sb3,400,0.00015237327772877726,0.8335561633240943,0.3160918127525533,28014.079887512904
13632,Cu2.95Sb0.98Sn0.02Se4,400,0.00014372518079000713,2.511269478018405,0.18670890422948672,46214.92699049035
15944,BaCu5.9SeTe6,400,0.00020327973685169585,0.5954080893257572,0.3733327440992783,13075.596569643965
15945,BaCu5.9SeTe6,400,0.00020331468631929383,0.6737986535643241,0.363049288434634,15049.348874111482
13065,Cu1.7Bi4.7Se7.84I0.16,400,-0.00010461202402173568,0.4956991960682055,0.0639918836903276,6425.580837912429
15946,BaCu5.9STe6,400,0.00021044375400780158,0.5187664723922162,0.27761594359953523,7669.905633686029
15948,Cu0.88Ag0.1InTe2,400,0.00023818513571890684,2.2434311598787837,0.13589501110634322,12091.249446559856
15949,Cu0.75Ag0.2InTe2,400,0.0002667195574214197,1.484544655961516,0.164156502209228,8179.1189547406
15950,Cu0.55Ag0.4InTe2,400,0.00034004338719848253,1.174967831813677,0.10712947731033627,2419.642195987213
15937,Al2O3,400,7.228144384292187e-05,4.061455467152794,0.07347297234053424,137413.30735023634
12985,Ni0.05Mo3Sb5.4Te1.6,400,6.888260004150121e-05,5.165633108267391,0.05320103577269436,160943.17379078188
13064,Cu1.7Bi4.7Se7.92I0.08,400,-0.0001090755112017277,0.5197042495545261,0.1456801129290482,15829.94946861076
15951,Cu0.68Ag0.3InTe2,400,0.00028166533852298363,1.3388960201129478,0.1424887844773839,5798.43143001908
15952,Cu0.45Ag0.5InTe2,400,0.0004209579543267021,1.159883976032142,0.08137031688158369,1090.1114189766563
12976,Mo3Sb7,400,2.7511282772256854e-05,6.7769956284991455,0.018698739975869128,500661.2499095061
10524,La0.1Sr0.80Yb0.10TiO3,400,-0.00011431670076573279,5.5616888099808275,0.008906866903552779,10028.213176381914
15953,Cu0.88Ag0.1InTe2,400,0.00022774745129104985,2.1263782671490663,0.13476054661554082,14034.93231332971
15954,Cu0.75Ag0.2InTe2,400,0.00026479023362153926,1.3842600787222958,0.13168506658656287,7219.842870372975
12980,Ni0.3Mo2.7Ni0.3Sb7,400,3.0293285619070783e-05,6.4215241917778645,0.029402267233588863,572440.5041977285
15955,Cu0.68Ag0.3InTe2,400,0.00029799074529762574,1.3990614410797857,0.15001594462124024,5599.010019165222
12979,Ni0.25Mo2.75Ni0.25Sb7,400,3.073176068697004e-05,5.840569726926214,0.0312700827938939,561348.4162400411
12975,Ni3InSb,400,-1.1103878652750298e-05,13.818364885832514,0.0034524891838144337,1140513.1927950336
15893,Ga12Sb2Te12Se3,400,0.0001933783329107323,1.0877982203395766,0.42912572152386697,29327.00428161398
15895,Ga12Sb2Te7.5Se7.5,400,0.00012611143125163665,1.229710565621969,0.3186845970278916,60305.02525867686
13059,Cu1.6745In0.0255Bi4.7Se8,400,-8.778810312890713e-05,0.6188778882729816,0.10562488539096496,21042.998626497167
13060,Cu1.7Bi4.6915Zn0.0085Se8,400,-0.00012294112438690884,0.6071183825723637,0.11632792051791925,9626.32012583327
12993,LiZnSb,400,5.0757013912281485e-05,4.957708436638569,0.04917003445482567,229860.1661404292
15897,AgPb18SbTe19Se,400,-0.0002087793716420873,1.0878670998652362,0.465667466388478,28644.923334899107
12992,LiZnSb,400,3.549992658913821e-05,5.262982491567382,0.01997300735880064,210039.28774187565
15898,AgPb18SbTe18Se2,400,-0.00018612721317476128,1.169001843011824,0.58949495447702,52640.765152912136
13061,Cu1.7Bi4.6745Zn0.0255Se8,400,-0.0001370602323162304,0.5795732961538145,0.11265140397345183,10134.447687573691
12996,Cu3Sb0.98Sn0.02Se4,400,0.00015585350801127455,2.301702943535522,0.2510849677121895,53815.12612452557
1917,Mn3Si4Al3,400,-8.950041776374681e-05,3.856058312929623,0.11365442557930346,136779.12712628947
15888,Ga7Sb2Te10,400,8.024289406855641e-05,1.0389289445665844,0.0744135624858945,28003.615182038793
13058,Cu1.6915In0.0085Bi4.7Se8,400,-0.00010479511837273741,0.6324153478670147,0.168467532853409,22216.12566916581
15889,Ga7Sb2Te8Se2,400,0.0001823904471829956,0.8476201218347261,0.2460450044175364,13945.83334358188
15890,Ga7Sb2Te5Se5,400,0.00012265667605192263,0.9885199917399848,0.22296034855358826,36168.82668820406
15900,AgPb18SbTe16Se4,400,-0.00019498617465763026,1.0827434025545233,0.5503896600936479,41253.45030717947
13063,Cu1.7Bi4.6745In0.0255Se8,400,-0.00012450975994550008,0.5340884342193751,0.0994212791870156,8838.565066566498
15930,Ni0.05Mo3Sb5.4Te1.6,400,7.452468223571338e-05,4.959235830848744,0.056583638021640466,120267.45802575689
12987,Ni0.05Mo3Sb5.3Te1.7,400,7.12824001358797e-05,4.741453083066157,0.0618457238804834,132281.44642913365
15931,Ni0.05Mo3Sb5.4Te1.6/0.020SiC,400,7.457316758166497e-05,3.988975188474801,0.07011825702809654,119796.20540155345
10655,LaCo0.80Ni0.20O3,400,8.58319099301746e-05,2.109542588171769,0.015687730105039373,10895.815542611097
15932,Ni0.05Mo3Sb5.4Te1.6/0.020Sic,400,7.423936673499459e-05,2.8606929502968432,0.0629558471606938,71234.28548938851
15933, SiC,400,7.706269389858994e-05,2.730649329891643,0.05166294667898788,60749.15927532756