sampleid,composition,Temperature,Seebeck coefficient,Thermal conductivity,ZT,Electrical conductivity
16941,AgPb20SbTe20+0.1vol.%SiC,550,-0.00023924425574418744,0.8348269758849153,0.7458808706277029,17154.580927885643
16947,AgSbSe0.04Te1.96,550,0.00023892223359289974,0.5863730504181355,1.0728942264102266,20578.868512579087
16942,AgPb20SbTe20+1vol.%SiC,550,-0.0002839028441958577,0.7446662095004433,0.8503626608227408,15263.272998133452
16943,AgPb20SbTe20+2vol.%SiC,550,-0.0003207013739260549,0.6296396518228511,0.5850574786917191,6730.020416835274
16944,AgSbTe2,550,0.0002763464571678,0.5622193369164608,1.0324279644342924,13952.870424703071
16945,AgSbSe0.01Te1.99,550,0.0002740324142300608,0.5575605988766935,1.104686583972825,15018.957069572518
16946, AgSbSe0.02Te1.98,550,0.00025080140495352784,0.5992762346549395,1.1865289524340306,20630.25354127175
6236,Yb14MnSb11,550,0.00010454290778950789,0.8997976767620506,0.2632569313629309,34631.5345323993
6229,Yb14MnSb11,550,0.0001043685881294013,0.8210688255247433,0.2498346791818609,30249.869256135
13185,Eu5In2Sb6,550,0.00015763650636748303,0.9229356123700974,0.03346186073990408,2438.420966811588
12045,Zr0.98Ce0.02NiSn0.98Bi0.02,550,-0.00020050576764561493,5.371058857339985,0.1996660265934162,45303.98329395224
14783,Mo2.6Fe0.4Sb6Te ,550,7.640968865381184e-05,4.973712621265873,0.13332681533910576,202755.8623327884
1312,BiTe,550,-0.00013206512752094034,1.566717713253789,0.5443194669095813,88800.26136938752
1311,BiTe,550,-0.00012532477425875174,1.5504238615567587,0.4659794043204067,83076.29585506486
12046,Zr0.98Ce0.02NiSn,550,-0.00014835596652007106,5.882241275649397,0.09614855791974122,45509.39737357264
13189,Eu5In1.8Zn0.2Sb6,550,0.000164801076292885,1.0120415358936463,0.2262622544887881,13289.89931958531
16710,AgSbTe2,550,0.00024938263193804533,0.7345198959997266,0.906443114703846,19882.16891769244
13188,Eu5In1.9Zn0.1Sb6,550,0.00017777387557619276,0.9221215767974316,0.2336630652969406,11988.783168458873
16711,Ag(Sb0.97Bi0.03)Te2,550,0.00029976063052174185,0.5650257650972679,0.5882792107167626,6755.194410623838
16712,Ag(Sb0.95Bi0.05)Te2,550,0.00027940020828833955,0.5062269476055153,0.9954740434091872,11479.134631656285
13187,Eu5In1.95Zn0.05Sb6,550,0.00018754644595188392,0.9177231605907026,0.2133083034837489,8954.113989261756
12047,Zr0.98La0.02NiSn0.98Bi0.02,550,-0.00020138297961999168,5.3392785115830215,0.21431613368044256,49574.32071877124
16713,Ag(Sb0.93Bi0.07)Te2,550,0.00030807353648160086,0.6474165033119311,0.5369168209329986,7256.802349387805
13186,Eu5In1.975Zn0.025Sb6,550,0.00020114863613579563,0.9231725371576774,0.13914042612194244,5986.755671780185
16714,Ag(Sb0.9Bi0.1)Te2,550,0.00022447584030176718,0.8416548682113529,0.21436160352863545,7143.92696388785
6235,Yb14MnSb11,550,9.306366135254564e-05,0.7937482846480288,0.22168506152786785,34023.218084267064
7909,La2.90S4,550,-4.012374411248221e-05,1.9920003761200376,0.05231124533191095,117684.39567970755
16749,AgSn3Pb15SbTe20,550,0.00021507090731855588,1.129187206005437,0.4454750639992833,19529.282341347982
16750,AgSn9Pb9SbTe20,550,0.00018623711122870576,1.2030273350268352,0.5430689019624152,32060.823410536046
16751,AgSn15Pb3SbTe20,550,0.00015146254813730618,2.033729086336378,0.2840646988441477,42500.74775554379
10206,Fe0.95Cr0.05Si1.958Ge0.042,550,0.00020692300517732,7.887808552669867,0.026905225064565948,9011.824941043236
7908,La2Ca0.2S3,550,-3.928489459214514e-05,1.6186651451093057,0.03957010698328337,75458.88187149803
13148,Cu2.123Cd0.935Ge0.901Se4.041,550,0.000339359205248902,0.8612627384732885,0.12170998045619401,1426.0140723500572
16754,Ag0.8Pb22.5SbTe18.4S1.6,550,-0.00025734298537760935,1.036112115300091,0.5528712731573374,15381.164490573408
16744,(GeTe)80(Ag0.6Sb1.4Te2.4)20,550,0.00020653201333364752,1.5543337630489271,0.9476110142895882,62944.65754638133
16730,(Ag0.365Sb0.558Te)0.975(GeTe)0.025,550,0.00013085874689055637,0.8036303989852275,0.6672858254471443,58182.80386661858
10084,MnSi1.73,550,0.00018772230691276555,2.329773791952769,0.19410027125016685,23331.6494726986
16733,Zn4Sb3,550,0.00018310395235006217,0.9664866179848264,0.5651733020812764,25182.311431861966
6231,Yb14MnSb11,550,0.00010674524497099985,0.9046581151403004,0.22411530379126549,28956.14774238284
6232,Yb14Mn1.05Sb11,550,0.0001046001132148562,0.8722131814185654,0.2866693619864095,37744.37274941412
6230,Yb14MnSb11,550,0.00010439148787770708,0.9042363493984096,0.2381285117397409,34224.73092081996
16741,(GeTe)80(Ag1.2Sb0.8Te1.8)20,550,0.0001919778261424188,1.4515538176590068,1.0274486725085945,74591.34745021911
6233,Yb14Mn1.05Sb11,550,0.00010617312436838636,0.8793268759958973,0.27785989954818857,36378.197022334505
16742,(GeTe)80(Ag1.4Sb0.6Te1.6)20,550,0.00017563242133608197,1.5480268780368531,0.7455935811462362,66517.2104116681
4347,Yb0.05Co4Sb12,550,-0.00019325177458688622,4.761455508547625,0.060383338040528665,15107.010956843535
7910,La8/3Ca1/3S4,550,-3.958562987342688e-05,1.6816200275005766,0.05687801845636665,110977.3933860961
16743,(GeTe)80(Ag0.8Sb1.2Te2.2)20,550,0.00018770742909953448,1.5287296749996877,0.9499930719192384,73991.02471795952
6234,Yb14Mn1.1Sb11,550,0.00010504786681262584,0.8935084335319412,0.25753339752452725,34081.23694678084
10207,Fe0.98Co0.02Si2,550,-0.0002093229312130212,4.07707300781511,0.033097437044400296,5599.465179617146
16740,(GeTe)80(AgSbTe2)20,550,0.00018880502148186165,1.4302931515397772,0.9538714411214008,68677.07141676384
13147,Cu2.086Cd0.950Ge0.906Se4.058,550,0.00042602171327061386,0.7792150453859292,0.0749940393440573,497.3222476382562
13213,(InSb)97.5(NiSb)2.5,550,-0.0001741869362825833,6.178992757166261,0.1376527727892038,55016.35227695228
10215,(FeSi2)0.95(TiB2)0.05,550,-0.00017444639315090037,5.164136805751338,0.06301599956108575,19442.937941045602
14777,Mo2.6Fe0.4Sb7,550,5.1409903480635184e-05,5.049562035275222,0.11801253178143857,368120.9691721985
13218,Cu3Sb0.97Bi0.03Se4,550,0.0002996256725764355,1.0591303282856117,0.2336870593888804,4281.9380387265
14776,Mo2.7Fe0.3Sb7,550,4.4587056968357744e-05,5.522028870034973,0.0881818216324356,396017.49549354
13215,Cu3Sb0.99Bi0.01Se4,550,0.00034702192483169884,1.0400564852559817,0.4754813583662737,6381.8954990160555
14773,Mo3Sb7,550,3.282867304301809e-05,6.530876462881078,0.0494153222698976,482273.9531273197
16669,Ag0.84Sb1.15Ce0.01Te2.16,550,0.00027280060429335094,0.8104944698281652,1.1647340019438055,23523.27390691305
16670,Ag0.84Sb1.15Yb0.01Te2.16,550,0.0002614722493616597,0.7804051069884921,1.1819156005289428,22848.302382498267
16671,Ag0.84Sb1.15Cu0.01Te2.16,550,0.0002727571009727273,0.7628741735953327,1.0765160631498412,18933.06532116985
10217,Fe0.98Co0.02Si2,550,-0.0002447380538181338,4.2924196872890175,0.049867211957334207,6497.579053100724
14774,Mo2.9Fe0.1Sb7,550,3.827353691572744e-05,6.472735468737315,0.06302247160098168,447936.6605136597
14775,Mo2.8Fe0.2Sb7,550,4.229958884473969e-05,5.880510298331589,0.07824181751851937,435928.3241835085
10216,FeSi2,550,-0.00019646723461421903,4.503640703397632,0.06556770698070599,13909.476255329224
8184,FeSi1.9,550,0.00018708094932054807,5.791579189074222,0.017860563839889,5373.661978465578
13217,Cu3Sb0.98Bi0.02Se4,550,0.00034931073413939286,0.9935526875063024,0.6167764376188533,9199.600303612575
14781,Mo2.6Fe0.4Sb6.5Te0.5,550,6.410220673974528e-05,4.617717858554143,0.15727566164239773,293900.2541400037
13200,Yb13.66Pr0.34MnSb11,550,0.00010842081844970185,1.0096208234167103,0.2437316294160605,32256.012151521278
10213,Fe0.94Co0.06Si2.00,550,-0.00017732019461130043,3.7246888689451088,0.10335075739273512,18938.561754596583
13199, Yb13.82Pr0.18MnSb11,550,0.00010749151847388408,1.0611849076643909,0.24397242573018504,37395.085660551216
14782,Mo2.6Fe0.4Sb6.25Te0.75,550,6.795837277764793e-05,4.168842755438032,0.1632539890161633,235882.10705754824
12044,Zr0.98Ce0.02NiSn0.98Sb0.02,550,-0.00011699468713216009,5.114996400788346,0.2541873709653677,190011.0374655618
14778,Mo2.55Fe0.45Sb7,550,5.5017399088122547e-05,4.708380732311762,0.13262837331794108,326099.42673195194
13205,Yb13.47Sm0.53MnSb11,550,0.00010272762348946204,0.7958004378224919,0.23920604059579,26408.419592973114
13204,Yb13.810.19MnSb11,550,0.00010054137006670136,1.0127630675782389,0.20317223392581307,33726.71446429358
14779,Mo2.6Fe0.4Sb7,550,5.203835267220763e-05,5.078023908274458,0.12000749274538294,377217.2148102293
13203,Yb14MnSb11,550,7.499051873038311e-05,1.107373278775579,0.1372944973129921,42994.68076345111
14780,Mo2.6Fe0.4Sb6.75Te0.25 ,550,5.9995776684745914e-05,4.5930154564122345,0.1515813926310197,326399.0009766717
13202,Yb13.45Pr0.55MnSb11,550,0.00011269349167306309,0.9441912193594848,0.2428698557291661,32307.53719040553
12043,Zr0.98La0.02NiSn0.98Sb0.02,550,-0.00014792366993840922,7.200184882615918,0.4493749087758778,284405.79271807533
12042,ZrNiSn,550,-0.00018074193070496389,8.272315502314317,0.07858879300734968,33879.62305673222
16755,Ag0.8Pb22.5SbTe18S2,550,-0.0002721008108676528,0.9790023544637504,0.5228101730131465,12158.56455578184
7904,La2.27Ca0.73S4,550,-5.947289411778711e-05,1.1938907253742297,0.08105368870068795,49743.52149341082
13093,Cu2Ge0.95In0.05Se3,550,8.147707520955514e-05,1.7183668702033634,0.09149001936745677,39761.79199074568
16809,Ag(Sb0.95In0.05)Te2,550,0.0002540691574368453,0.6417256531144445,1.0458277109676721,18522.336234039198
16810,Ag(Sb0.93In0.07)Te2,550,0.00026927003314418006,0.6201686127429845,1.1422995998210457,17684.168422594845
4830,Yb0.14Co4Sb12.05,550,-0.00019476899961831228,3.1275717039063036,0.8011756987384007,118472.14966865856
480,Fe0.98Zr0.02Si2,550,8.335392935633279e-05,8.464393696271397,0.000768437349423846,1481.9827494095935
16814,Ag0.366Sb0.558Te,550,0.0004225722681060792,0.5702694230464436,0.5739649077318311,3288.798951814143
4829,Ba0.23Co4Sb12.22,550,-0.00015296065485816154,4.0734327503832,0.6557724997166585,202907.04561983663
16815,(Ag0.366Sb0.558Te)0.99 (GeTe)0.01,550,0.00026463765640819627,0.6201989358607949,0.39804601330995776,6484.993771683498
16817,(Ag0.366Sb0.558Te)0.98 (GeTe)0.02,550,0.00024132605775655766,0.7262896251957179,0.4108070288756369,9255.39591066418
16818,(Ag0.366Sb0.558Te)0.96 (GeTe)0.04,550,0.00019781316421336906,0.8588832262459247,0.2805014314959792,10808.013971925342
16819,(Ag0.366Sb0.558Te)0.92 (GeTe)0.08,550,0.00016310297942715644,1.0146228517212308,0.16825309198582414,11330.620716618183
544,Ba24Ga9Ge91,550,-5.6194665670098156e-05,2.289103118014701,0.10535999060532507,136841.85279000053
13094,Cu2Ge0.9In0.1Se3,550,7.810643668252166e-05,2.070555604397318,0.11093251438379942,67719.16644911688
16808,Ag(Sb0.97In0.03)Te2,550,0.00023518859255841602,0.6802955898579657,0.9394163096284676,20057.07348190414
13095,Cu2Ge0.85In0.15Se3,550,6.864256904116416e-05,2.549949628048254,0.12954943248196027,120840.81364116348
13105,ZnIn18SiSn20,550,9.491985592677536e-05,4.931972490882148,0.10567206462263326,86451.10944022941
10197,FeAl0.06Si1.95,550,0.00023980937042777494,4.030009040893961,0.045653909471793534,5816.86529135427
13101,(GaSb)2.7(Ga2Te3)0.1,550,0.00019755839527956683,3.2278532993073803,0.003188777519777848,479.4952828400631
12195,Bi0.5Sb1.5Te3,550,0.00018413848547940305,1.5938961394877134,0.3494233887045031,29933.97280524032
13100,(GaSb)2.7(Ga2Te3)0.1,550,0.00023391984258330122,2.6318311425558694,0.00608451616384695,532.0926443487472
13099,(GaSb)2.85(Ga2Te3)0.05,550,0.00029485908176145293,5.454338048919944,0.004212848061157333,480.53623403228033
13098,(GaSb)2.85(Ga2Te3)0.05,550,0.0003037144215209892,4.772734471748491,0.004949199492930325,465.5954363840248
16807,AgSbTe2,550,0.0002180745769337395,0.7251385265870256,0.8190435745903608,22311.066957928622
10196,Fe0.95Co0.05Si1.946Ge0.054,550,-0.00014651465843639055,5.1886271400183395,0.04573885152807798,20100.778370184173
4831,Ba0.15Yb0.09Co4Sb11.86,550,-0.00016130891818865578,3.3378083854219067,0.7321700689446089,171610.11759039765
13063,Cu1.7Bi4.6745In0.0255Se8,550,-0.00013069524604453854,0.546474460109946,0.1512544419976184,9519.308776455951
13062,Cu1.7Bi4.6915In0.0085Se8,550,-0.00012906813668854452,0.5403153275881609,0.15393829224951966,9099.447378379624
13061,Cu1.7Bi4.6745Zn0.0255Se8,550,-0.0001354053305907241,0.5821094436371073,0.16754155390442127,11145.764242009387
13060,Cu1.7Bi4.6915Zn0.0085Se8,550,-0.00012769710421689617,0.6173221565697009,0.1755489842916032,10225.607487424904
13059,Cu1.6745In0.0255Bi4.7Se8,550,-0.0001113951132495967,0.5954209628201884,0.18840811058597487,17336.49877956495
13058,Cu1.6915In0.0085Bi4.7Se8,550,-0.00011863948912298247,0.5818919235528028,0.2529506680772422,17297.547606451015
13057,Cu1.6745Zn0.0255Bi4.7Se8,550,-0.00011879778721140874,0.6068663281765653,0.2207939261124338,17232.803918128382
13056,Cu1.6915Zn0.0085Bi4.7Se8,550,-0.00010891138273296529,0.5648949298236128,0.1981518010111109,17196.024274160445
13055,Cu1.7Bi4.7Se8,550,-0.00014346834371536984,0.5618583708857181,0.1800684609312706,9534.022759116417
16834,AgPb17SnSbTe20,550,-0.00024026842726240267,1.0810543708422866,0.4940127843229805,17976.201324793295
10191,Fe0.95Co0.05Si2,550,-0.000172428876279568,4.2097224400232856,0.06918483986028627,17810.72987999271
13064,Cu1.7Bi4.7Se7.92I0.08,550,-0.0001396670767504096,0.5151751666568095,0.2359860003236589,11293.77187804068
13065,Cu1.7Bi4.7Se7.84I0.16,550,-0.00012857850741107517,0.4996200323721284,0.1409556813670262,8076.678067520406
543,Ba24Ga4Ge96,550,-4.278738005913565e-05,3.2684193934110914,0.05665496388922764,182948.1552952356
16821,AgSbTe2,550,0.0002678205282372004,0.4938504684930747,1.4212622795227576,17636.39868162441
16822,(GeTe)75(AgSbTe2)25,550,0.00022061363811402514,1.2320768293062048,1.0999711701993506,50115.26643194056
10086,MnSi1.73Al0.001,550,0.00018232891180217252,2.4893999348555718,0.2280209492087433,31045.285182944423
7903,La2.76S4,550,-5.691747461156962e-05,1.2914177882990572,0.07733004699460197,56048.12696844339
16823,(GeTe)80(AgSbTe2)20,550,0.00021804015212887118,1.2107907607579986,0.9579893048398368,42700.435843978885
16820,AgSbTe2,550,0.00027585710955604133,0.5639203784639156,1.035164053785167,13995.022245944685
16824,(GeTe)85(AgSbTe2)15,550,0.00017273091711127105,1.562608837905057,1.0236780236633047,93863.43881986773
482,Fe0.94Zr0.06Si2,550,2.554154610748157e-05,9.12614688478109,0.0018475041491972,52892.573501959036
16825,(GeTe)90(AgSbTe2)10,550,9.260198848606097e-05,2.505006050207701,0.3382531782487454,172525.96460634892
16826,AgPb18SbTe20,550,-0.0003209623403513319,0.7859428259319666,0.2129259597322544,2430.1686126136897
16827,Ag0.9Pb18SbTe20,550,-0.0003024504883912337,0.8460302675706375,0.3174212987440377,4339.86242768498
13146,Cu2ZnSnSe4,550,0.00017453596773102343,1.8540827790205785,0.11910373701417967,10725.041372071244
6242,Sr3AlSb3,550,0.0004297515238727341,0.7781469142354012,0.029560203740121613,226.44956067173283
10203,(Fe0.95Cr0.05Si2)0.995u0.005,550,0.00028062748253810326,10.529603049726193,0.018057730673315675,4389.874256422092
4837,Yb0.6Co4Sb12,550,-0.00011958801276594243,3.4679107264569984,0.5962221543776444,253004.5344005632
13130,Yb9Mn4.2Sb9,550,0.00011545580656898144,0.612727599946183,0.2605930054167272,21778.90042428891
7905,La2Ca0.1S3,550,-6.472598354289263e-05,1.3813066390374882,0.08899528527893627,53350.32781138909
10202,FeAl0.05Si2,550,0.00022931262796242836,7.414162144917034,0.07084669392724838,18161.97342601029
13129,Yb9Mn1.2ZnSb9,550,6.0674533166673485e-05,1.2208477550328116,0.09250743843821302,55777.955020146444
4838,Yb0.6Co4Sb12,550,-0.00013055626824475832,3.2101254246489086,0.6088774568630385,194236.21978412574
13145,Cu2Cd0.1Zn0.9SnSe4,550,0.00019893227575791149,1.7085777866188825,0.08523189351117445,5380.584638562306
10205,FeSi2,550,-0.00042237940073960666,12.231104427140243,0.00512331437660474,638.6288459481011
16756,Ag0.8Pb22.5SbTe16S4,550,-0.0002679384446649096,0.9029007457630428,0.5463979906512977,12081.294798624798
13144,Cu2Cd0.2Zn0.8SnSe4,550,0.0002353574774548497,1.6095837039548988,0.10254094696995783,4444.00003943418
13143,Cu2Cd0.35Zn0.65SnSe4,550,0.0002552959460738147,1.574806175310932,0.11383537612154293,4365.03355401889
7907,La2.53Ca0.47S4,550,-4.0007202827218235e-05,1.317347302097006,0.04961694499435819,74249.10812965152
16757,Ag0.8Pb22.5SbTe12S8,550,-0.0002543277480393324,0.8847682890266242,0.6408404500016307,15931.719058921315
13142,Cu2Cd0.4Zn0.6SnSe4,550,0.00023069051054093687,1.3946196646672775,0.1409755595099051,5814.478240964608
13141,Cu2Cd0.45Zn0.55SnSe4,550,0.00025259564149770613,1.538446097328253,0.11116693850801083,4274.719856713953
13128,Yb9Mn2.2Zn2Sb9,550,3.8214389657556564e-05,1.5430595666338118,0.05714636606318822,109787.9726643942
13140,Cu2Cd0.3Zn0.7SnSe4,550,0.00025989433199710487,1.319467387073629,0.07095942605776605,2031.4371366300186
13139,Cu2Cd0.5Zn0.5SnSe4,550,0.00029855808341952886,1.4483354808932023,0.08459596938488315,2133.9302292212037
10204,Fe0.94Co0.06Si2.00,550,-0.00017196484967311177,3.77611412049244,0.09805893941424336,19522.543766029547
7906,La2.84S4,550,-4.084630100683968e-05,1.7307837629646026,0.042521972909681696,80202.52888775468
16798,AgSbTe2,550,0.000277649042018112,0.5524123845816401,1.0530285037584357,13782.475940118453
13119,Ca5Ga1.95Zn0.05Sb6,550,0.00015575390682880908,1.108380333496388,0.22337408909602025,16275.999121520617
16785,(GeTe)0.85(AgSbTe2)0.15,550,0.0001701994360234846,1.5989925612089726,0.8951520756719389,86090.26794475754
6244,Yb14MnSb11,550,9.418973010529991e-05,0.8221242943351239,0.2385075037183859,33941.051041896026
10199,FeAl0.10Si2,550,0.00018754346226273385,9.321909510199495,0.053145872941561055,25609.89982020281
16794,AgSbTe2.01,550,0.0002516790630839846,0.52045262073276,1.3172908320791097,19708.89511217174
16795,AgCe0.005Sb0.995Te2.01,550,0.00023365946544023588,0.6016994618401802,0.9871200870340032,19776.663078987527
10198,(FeSi2)0.7(TiB2)0.3,550,-2.5121596601074687e-05,9.638855787363577,0.00464608687080999,129019.58597889515
6245,Yb14MNSb11,550,9.402085253510146e-05,1.0185715457603837,0.1685109684446484,34007.288999173594
16796,AgCe0.01Sb0.99Te2.01,550,0.00023590120770542242,0.6103916230970762,1.1270419406616914,21799.79959092784
16797,AgCe0.03Sb0.97Te2.01,550,0.0002632378372932164,0.5944679749084554,0.9803193402356568,15325.563189708897
4832,Ba0.24Yb0.12Co4SB11.85,550,-0.00014552914142773696,3.5900474669334854,0.7474202463820006,227883.79375081352
16784,(GeTe)0.8(AgSbTe2)0.2,550,0.00019769894927751505,1.3461446111286732,1.1996281274121028,72521.88119421613
13120,Ca5Ga1.9Zn0.1Sb6,550,0.0001300409573345577,1.296667159185052,0.21740742133186375,28020.63444124689
13125,Yb9Mn4.2Sb9,550,0.00010295195682463199,0.6178915147892968,0.24965297133559616,21807.301747317204
13124,Yb9Mn4.2Sb9,550,0.00011507481242649755,0.6355410798355876,0.28660703355168765,21384.31071014193
4835,Yb0.6Co4Sb12,550,-0.00012747170581017784,3.347915687346197,0.623039721518833,236801.43280656496
10201,Fe0.98Co0.02Si2,550,-0.00026344208987305986,3.9732156269508088,0.04087124198946136,4254.288665794417
13123,CaAl1.9Zb0.1Sb6,550,0.00013848449047724684,1.1689840677635597,0.1998896470816687,20931.65023857895
4833,Ba0.14Eu0.13Ci4Sb12.05,550,-0.00014398936545408889,3.96071704337793,0.7327676288101481,253049.5809647909
13122,Ca5Ga1.7Zn0.3Sb6,550,8.755895457927728e-05,1.5355649069878574,0.14275369726065265,52305.11972220169
16783,Ge0.87Pb0.13Te,550,0.00016531626200543692,1.6886173356030996,0.8528081661018738,79712.87019755246
10200,(FeSi2)0.995Cu0.005,550,-0.00039165693920152243,12.801267876849119,0.0052583791791102,797.8670766718774
16668,AgSbTe2,550,0.0002882293260418837,0.7221480823978508,1.3849324631556783,20356.80417690958
12864,Cd0.99Ag0.01Sb,550,0.00022923761628202002,0.8081677282040056,1.1466783428131821,32061.837050949733
10106,MnSi1.78,550,0.0001773348303195809,2.2832869863974183,0.1861634590195989,24575.601955150225
17217,Zn4Sb3,550,0.00016909578937662642,1.0356954024395937,0.4456698305561068,26212.624612288553
15073,SrB6,550,-0.000129560251746537,20.003804347325737,0.08259411884570712,152971.39320059196
270,Pb0.98Na0.02Te1,550,0.00020057339106854122,1.93041018113437,0.7336030940333004,64003.16195396357