sampleid,composition,Temperature,Seebeck coefficient,Thermal conductivity,ZT,Electrical conductivity
5911,Ba0.4Ir4Sb12,500,-0.00013952807513926122,2.895706007109544,0.2447012213320629,69041.6034113877
10394,NaxCoO2,500,9.383417476717432e-05,1.8730139931540264,1.7201161291930967e-09,0.0007318241011226906
6232,Yb14Mn1.05Sb11,500,9.375470081457488e-05,0.8809958351789762,0.20293736470611368,41483.79167632767
16565,Mn32.4Re4Si63.6,500,0.00016463327859218724,1.9626267198768703,0.38131136399208987,52470.04226997887
5865,YbZn2Sb2,500,7.113090127365231e-05,3.4160749693824224,0.164408701889607,213430.58064876054
16566,Mn30.4Re6Si63.6,500,0.000166342213860502,1.6959553139080223,0.5028554343586091,59134.525462400175
6230,Yb14MnSb11,500,9.33821670000604e-05,0.9139591913999568,0.15465667971512387,37111.892766969206
5866,Yb14MnSb11,500,8.427503222065366e-05,0.8775335848857315,0.14830287196317374,37892.585971927474
16730,(Ag0.365Sb0.558Te)0.975(GeTe)0.025,500,0.00011558489386958784,0.8133247904418778,0.5412368318167977,64557.31438001281
16732,Ag0.365Sb0.558Te,500,0.00011323243842375771,0.8669588840193946,0.4788496603899717,63131.950410852325
14537,Cu0.2Ag2.8SbSeTe2,500,0.0001586491934805611,0.5284233633624753,0.18005955123564735,7560.533338670832
6231,Yb14MnSb11,500,9.804506997673484e-05,0.9011254129048294,0.16987447325020938,30875.160239782384
16248,FeGa3,500,-0.00029782932689925186,2.9653319547986308,0.014713137324663597,983.7249394507173
10203,(Fe0.95Cr0.05Si2)0.995u0.005,500,0.00028887424733203826,10.776803399731646,0.01620264374240649,4184.929873447509
4837,Yb0.6Co4Sb12,500,-0.00011333929231264045,3.4536508886931645,0.5137719483490185,264665.8384758897
5027,Sn0.4Co3FeSb12,500,0.00012316391163632809,1.5064852020354464,0.1991896978525904,37183.867148417216
6242,Sr3AlSb3,500,0.0004194861270564285,0.8163627415445318,0.020848988961155637,193.4474303124623
5141,Sr0.23Co3.95Ni0.05Sb12,500,-0.00013638237543608754,4.075459176590069,0.4532214873899834,183393.15329024126
4838,Yb0.6Co4Sb12,500,-0.00012271087964262133,3.2014111989505216,0.5154002805895709,202146.14313642567
14729,Cu1.99Fe0.01Se,500,9.911504607466144e-05,1.0900129072386335,0.4167755031703285,84940.77231396544
13627,Ag0.68Sb1.32Te2.26,500,0.00013430149485725272,1.021005895750951,0.4039085778178699,50809.3472365105
8214,Bi1.8Sr2Co2Ox,500,0.00013031276532237348,0.7012376802572879,0.012765232034787048,1059.2556121573396
13843,Tl9Bi0.99Te6,500,0.00026524929117532014,0.3800151892245568,0.9981036568976422,10631.577492692071
16240,SnTe0.75Se0.25,500,0.00010184239764705708,3.770046240190541,0.16053098345461872,123534.52605665295
13844,Tl9Bi0.98Te6,500,0.0002423589909628665,0.3789823123989067,1.083883317442668,14498.951191951097
13128,Yb9Mn2.2Zn2Sb9,500,3.176205984844679e-05,1.5680407703445347,0.038599654241668335,119992.3174711088
10202,FeAl0.05Si2,500,0.0002287758657744105,7.640509265941287,0.06344764810881473,18524.539278221608
4835,Yb0.6Co4Sb12,500,-0.00012066928815730991,3.3369289649276053,0.5383421979437433,247331.16503055074
9689,In0.05SnBi1.95Te4,500,7.920144691049752e-05,1.1900986518531682,0.17060492238013286,72310.73611951934
13845,Tl9Bi0.97Te6,500,0.0002191050615898775,0.4326446286367384,0.9708827483022788,17508.9476149181
13129,Yb9Mn1.2ZnSb9,500,5.390887506673292e-05,1.2432012846091391,0.07034748137163747,60186.55149483938
9426,(Mg2Si0.9375Sb0.0625)0.4(Mg2Sn)0.6,500,-0.00022985949416100943,2.380888874084766,0.4228100022566886,43573.40822650227
13130,Yb9Mn4.2Sb9,500,0.00010614370524428484,0.6208181128808155,0.2144067605480021,23628.946691401427
7905,La2Ca0.1S3,500,-5.897560211586164e-05,1.3220569998614198,0.07641560361263848,58092.150860815134
4836,Yb0.6Co4Sb12,500,-0.00011548798616467332,3.2526461278099417,0.5577880193093191,264027.0085133417
9690,In0.07SnBi1.93Te4,500,8.229947174611451e-05,1.3024613886242338,0.10167682695215964,36285.03773665642
10232,Fe0.97Co0.03Si2,500,-0.00023833169334084399,6.700855903868791,0.03980164403269343,9390.69398765626
10205,FeSi2,500,-0.0004735047929813125,12.963404492701947,0.002884944870762752,333.60905322809504
16756,Ag0.8Pb22.5SbTe16S4,500,-0.0002689404935767349,0.9309078740748092,0.4180379021223137,9598.706443326075
13630,Cu2.95SbSe4,500,0.00034059065618701834,1.7383271522002173,0.25299932129107616,6112.138169596185
13143,Cu2Cd0.35Zn0.65SnSe4,500,0.00024407776069253407,1.7435650380730814,0.0949830294774287,4678.241260198578
7907,La2.53Ca0.47S4,500,-3.4635333982781504e-05,1.2727068500851726,0.03801580846499975,80664.76046516703
16757,Ag0.8Pb22.5SbTe12S8,500,-0.00025729423646311166,0.9247932967634652,0.5457382196120915,14726.063041133491
5861,CaZn2Sb2,500,0.00016126340306590946,1.913293702058129,0.2384257486484924,30521.36730556727
13148,Cu2.123Cd0.935Ge0.901Se4.041,500,0.00033639400738706514,0.9692220008790806,0.09761670439508956,1397.134506308105
16754,Ag0.8Pb22.5SbTe18.4S1.6,500,-0.00025926325805297984,1.0735187621344675,0.43165393503395577,12443.145669837915
13820,Cu2.15Zn0.85GeSe3.9,500,7.231415006505421e-05,0.4385067687579735,0.20578843389959398,28286.801887285284
13631,Cu2.95Sb0.99Sn0.01Se4,500,0.00021836659835472075,1.8755198018573669,0.3481422443771178,22204.639593573946
2386,Ba8Cu4.5Si6Ge35.5,500,-6.458643299927681e-05,1.7581986367733329,0.1190076940726552,104358.61343308302
13147,Cu2.086Cd0.950Ge0.906Se4.058,500,0.0004358373037660118,0.8849430506017553,0.05430719492551533,417.7351677036255
16755,Ag0.8Pb22.5SbTe18S2,500,-0.00027037388162315666,1.009292271598336,0.3769164278662367,8950.317316773291
10204,Fe0.94Co0.06Si2.00,500,-0.00016737085625954538,3.735791888234981,0.07981279453015615,18850.068554780097
13826,PbSe,500,-0.000271856747015702,1.1203928795750198,0.3643748427077903,11149.777771723735
9692,Ga0.03SnBi1.97Te4,500,8.633333919403377e-05,1.3447544791232546,0.15067969149395274,56019.30922329423
6123,PbTe,500,0.00015867606399307246,2.536882062184388,0.610676716940631,142632.44499766402
7906,La2.84S4,500,-3.612523637134245e-05,1.6880892683020816,0.03275750126691774,84745.1350802404
9693,Ga0.05SnBi1.95Te4,500,8.330203450687595e-05,1.6656354448444848,0.15487207176234005,85373.59502096614
13141,Cu2Cd0.45Zn0.55SnSe4,500,0.00024092272725698081,1.6831717363782803,0.0930877949053133,4562.2973852990535
2385,Ba8Cu4.5Si6Ge35.5,500,-6.941988872838737e-05,1.0202848715514392,0.11653360298006275,44890.356083691884
16246,Ru0.85Fe0.15Al1.98Si0.02,500,-0.00010768196653000691,9.373617381689687,0.013326130572463195,20676.37009811772
13139,Cu2Cd0.5Zn0.5SnSe4,500,0.0002855693734050884,1.609422639238574,0.07033223216827755,2252.313464533362
13142,Cu2Cd0.4Zn0.6SnSe4,500,0.00021700758439109117,1.5367262224694034,0.11684612376501564,6277.3021560772095
16794,AgSbTe2.01,500,0.0002533236965152243,0.5223444624116401,1.1868425895390342,19201.03216843569
4619,Co0.92Ni0.08Sb2.96Te0.04,500,-0.00013601059603847066,4.017967811639318,0.24351545656093204,96751.1254009122
5309,CoSb3,500,0.00015909419821626326,4.710353325152978,0.4674836943311247,173996.80092932686
2052,Fe0.92Mn0.08Si1.9,500,0.00022455889352686505,6.697467370794867,0.019230892603961814,5108.336823630476
5092,CoSb3,500,-0.00034721398304464316,7.575196174281475,0.04182118129762497,5255.64184926799
6407,Yb14Mn1.05Sb11,500,0.00012842207454105865,0.8553060762176992,0.18596761570027215,16874.838397433334
6408,Yb14Mn1.15Sb11,500,0.0001739168224348009,0.8371356848908601,0.07733358026669078,3851.2131537181813
6406,Yb14MnSb11,500,0.00011026678802382424,0.9421783692070868,0.12378201731142913,16923.636149249436
15077,ErB22C2N:ErB4,500,-1.832395321335864e-05,1.9708220855093623,3.173300810712497e-07,3.725206142067445
14194,CuIn0.9Cd0.1Te2,500,0.00016062817795051832,2.418357849618253,0.17908881530995482,31313.061382900185
5310,CoSb3,500,0.00013295083432825458,4.92707749613586,0.2380241208599322,132696.12002166954
10258,Hf0.5Zr0.5NiSn0.98Sb0.02,500,-0.0001103821783976891,3.44925326117494,0.2280198714476153,128393.0981979638
14191,CuInTe2,500,0.00026469673610084773,2.9321448623166537,0.1330972957381104,9156.462714067571
6403,EuCd1.8Mn0.2Sb2,500,0.00030736700858228686,0.9715805446379172,0.16875237855005956,3075.0534168668514
16420,Ag0.5In0.5Pb5Sn4Te10,500,0.00023544059841573036,0.8913649467128619,0.2723822555153932,7238.643960124642
14192,CuIn0.98Cd0.02Te2,500,0.00022877891797507783,2.7863336182249734,0.18063901438003688,18150.73269701047
6404,EuCd1.6Mn0.4Sb2,500,0.0003288745857248247,0.8947904970453029,0.1267490384066318,1970.35478316025
14193,CuIn0.95Cd0.05Te2,500,0.00019128744624465538,2.55969111956679,0.16299071644173738,20580.04099620153
6405,EuCd1.4Mn0.6Sb2,500,0.00013259740875400526,0.9952294694500141,0.027821708044800428,2652.447273444346
14195,Tl9BiTe6,500,0.00028329950437099884,0.3250762169143768,0.980324843633334,6667.0457074643955
14196,Tl9Bi0.95Sn0.05Te6,500,0.0002219944548790514,0.4355415323108814,0.938169911283408,14659.587594403545
14201,Tl9Bi0.9Pb0.1Te6,500,0.0001762099825049028,0.5614435464695585,0.8596979617669055,28238.74713028732
10104,MnSi1.78,500,0.00017703858188599923,2.4234351674665047,0.4559893879802897,70514.80233589554
14202,Tl9Bi0.85Pb0.15Te6,500,0.00016518119203734423,0.5774137293802217,0.7533393776430538,31696.524072065284
5233,La0.3FeCo3Sb12,500,0.00011749188512201396,2.6660213792028484,0.12013395146598554,38470.19792163407
2055,Fe0.92Mn0.08Si2.3,500,0.00026483027348715065,9.471284214515578,0.012049960216000364,3254.5370488258623
4230,CuGaTe2,500,0.00030940869304704337,3.3371396992257685,0.15203704617960329,9304.094200158652
14204,Tl9Sb0.97Sn0.03Te6,500,0.00019503967026045018,0.4601715674181111,0.823193995903114,19032.504421525533
10259,HfNiSn0.98Sb0.02,500,-0.00010130477118137354,7.225622799266317,0.18471120815394468,233495.2476052305
240,Pb0.98Na0.02Te0.84S0.16,500,0.00019541413279108331,1.5904103894071522,0.5335939230140466,44446.55810202216
370,Pb1Se1Cl0.001,500,-0.00021531532318722668,1.5168283453933509,0.6135475696787932,40148.08136246982
2053,Fe0.92Mn0.08Si2.0,500,0.0002952665680831727,6.782219192507355,0.02302544699318756,3582.4598733681
14197,Tl9Bi0.9Sn0.1Te6,500,0.00018983938116203176,0.4986031384087176,0.8229217992663065,20333.743339018685
9356,Mg2Si0.9Sb0.1,500,-0.00012172649944496768,2.6189941855284653,0.17847084348721567,62361.221952035216
14199,Tl9BiTe6,500,0.000286117508641177,0.3372096040646708,0.9792728332398571,8102.5372535071365
2054,Fe0.92Mn0.08Si2.1,500,0.0002979064506170568,6.320597087004393,0.019232213025471137,2739.413229647642
11029,NiZrSn,500,-0.00018703246632524774,8.743894295755215,0.08015532899416072,32578.54175491242
10257,Hf0.6Zr0.4NiSn0.98Sb0.02,500,-0.0001147116301952463,4.146942623448623,0.2690204454441705,161688.6033141482
9483,(CoGe2)0.15(GeTe)12Sb2Te3,500,0.0002124954297666165,1.4333130044393323,0.6773626181989579,38324.170891432004
12642,WOx here x is 2.92.Matrial family tungsten oxide,500,-4.033903424118981e-05,3.693145152053228,0.013503361046379898,54783.627318922714
12641,WOx here x is 2.88.Matrial family tungsten oxide,500,-3.2082248323221614e-05,4.540278415684382,0.01607606908665511,139216.27780046142
14179,Ag0.6Cu0.4TlTe,500,0.00028953748132082573,0.35788534339531275,0.4763052886691157,4399.321426183542
9449,Pb3Bi2S6,500,-0.00011689334102518279,0.7980741080672837,0.1184000355054758,13506.282561958378
14175,Ag0.95Cu0.05TlTe,500,0.0003803804093801694,0.3430800341412097,0.3446294810075091,1858.0080243063485
10123,MnSi1.74,500,0.00014442808205460236,3.007310060179794,0.1570658719870232,45288.37567545042
12640,WOx here x is 2.86.Matrial family tungsten oxide,500,-2.8249659249243896e-05,5.0956134958994035,0.01805228594720725,209224.36663650538
11050,9.104 × 10−3 mol % PbI2-doped PbTe,500,-0.00021079478296184376,1.5605192931239251,0.8022486915593696,48987.245650051336
11939,GdPdBi,500,7.590063918433198e-05,5.162241338420944,0.07636214673750975,128928.62390222467
12634,WOx here x is 2.9.material family tungsten oxide,500,-3.342236108885446e-05,3.970947518662406,0.01293167820084208,78783.19876441259
5311,CoSb3,500,0.0001580811244825989,4.91260785736316,0.3666537186011116,144157.80305012502
10144,MnSi1.74,500,0.00010665088802517934,4.503653822291965,0.07779070768856658,61601.85169843668
12639,WOx here x is 2.84.Matrial family tungsten oxide,500,-2.967508405228477e-05,5.6444417278000225,0.02171698042141661,291261.47671585425
6402,EuCd1.9Mn0.1Sb2,500,0.0002918529824023475,1.0442883336066369,0.1684755942221307,3825.693652810448
4617,La0.3Co3.68Ni0.32Sb11.84Te0.16,500,-0.00017643823987782911,2.093780111570648,0.5667904884331594,70788.09859555656
15003,(CuInTe2)0.995(2ZnTe)0.005,500,0.0002560500691937682,2.834068549163287,0.18300071279953287,15821.342509492148
11938,LaPdBi,500,6.498093823839638e-05,5.239488187513496,0.07588982878224898,184298.62507094725
17218,Zn4Sb2.98In0.02,500,0.00016532879339346384,0.7370472111412824,0.6028832002980422,31715.506853567247
270,Pb0.98Na0.02Te1,500,0.00017127288306706694,2.2042849105465208,0.5574785794097467,83781.60798824369
2293,Ba24Ge100,500,-3.3952012844326354e-05,3.3596607647980283,0.030501357448515582,187991.57087947786
15073,SrB6,500,-0.00012233029788912507,20.996564696800142,0.06686867864943545,161701.06567951804
17217,Zn4Sb3,500,0.00016280159705603928,1.0482214106004262,0.3784684221207309,25910.325750080014
14224,Mg2Ge0.98Sb0.02,500,-6.135393295296844e-05,8.907354081312507,0.09597035928628428,454183.1500415522
11024,NiZrSn0.99Sb0.01,500,-6.445030388871668e-05,13.993949869707752,0.035878296564612285,234244.76223558944
2291,Ba24Cu4Ge96,500,-4.1964012213180107e-05,2.7431195489930857,0.034491412497858975,121133.58568088
9439,Pb5Bi6Se14,500,-0.0001552206472095921,0.5007572934226574,0.2499942571994784,10171.509787431485
6526,Ti1.008S2,500,-0.00013141737242830284,2.2754577643070437,0.1585316936531401,44784.212986938466
253,Pb1.02Se1,500,-7.837399849167365e-05,3.13534318272107,0.2102646520216372,214653.1865501562
6528,Ti1.008S2,500,-0.0001185149658431417,2.729483523792801,0.22601262743861866,86335.71742065743
5991,YbCd0.4Zn1.6Sb2,500,8.226792336120753e-05,2.200773397000581,0.28385807052457884,151325.60870291482
6529,Ti1.031S2,500,-6.400736084138916e-05,2.966018329858904,0.09118609944361784,140514.48516314212
13534,Cu2.95SbSe4,500,0.00034413152583294616,1.5299145093885311,0.2723211313381074,5929.2332960683325
2295,Ba24Ag4Ge96,500,-3.9850729229266415e-05,2.3316662878097967,0.05696723680287619,170470.93405143014
11015,Fe2.08V0.92Si,500,-5.182109101385473e-05,10.305418180919217,0.051230053088202034,385449.3801206972
207,Pb1.003Se0.92S0.08,500,-0.00012774546496327173,2.1771991842566987,0.6618651221868646,176606.4951572884
10106,MnSi1.78,500,0.00016289782704742957,2.2489762305426995,0.22205791015034826,37640.07906507433
2294,Ba24Ag2Ge98,500,-3.5856154997444015e-05,2.561794723216105,0.050432549187282634,186725.3453587293
17221,Zn4Sb2.92In0.08,500,0.00016677236132649732,0.8394021310558446,0.6249314938014454,36608.621952655696
13535,Cu2.925SbSe4,500,0.00034086542322907867,1.5280366493140842,0.2916074884226696,6231.609223533886
17220,Zn4Sb2.94In0.06,500,0.00017028049225207192,0.7700073281040272,0.6934321231612113,33950.124819050085
5992,YbZn2Sb2,500,7.547531117642681e-05,2.9893703413647232,0.18998837195011736,161766.52967949345
15018,GeSb6Te10,500,6.362499519272524e-05,1.752241486824046,0.17477392091529306,123449.54175188695
15487,Mg2Si,500,-0.00013545715830444438,4.504482982518277,0.2545141829309767,102778.10935332988
10107,MnSi1.73,500,0.00015612551320554836,2.9769067088148917,0.13942496572960422,34055.55865585744
2290,Ba24Cu2Ge98,500,-3.6389392425315056e-05,3.2547319371080183,0.027344227643984392,156956.97922422667
266,Pb1.003Se1Cl0.006,500,-0.00010835387202552676,2.1109729884664206,0.3340962969191054,120142.16753799046
10142,MnSi1.733,500,0.00016222865320495306,2.376183014295616,0.14372224745453893,25952.47354956856
11027,NiZrSn0.95Sb0.05,500,-4.8243255113914564e-05,12.690209880470922,0.0234172410896333,249014.24415468465
11026,NiZrSn0.97Sb0.03,500,-5.891544087384872e-05,11.84573160736105,0.03529151961604025,258891.6987685984
5231,La0.9Fe3CoSb12,500,0.00013084945811925878,2.332848411687955,0.3879661497427893,98990.36962217154
14207,Tl9SbTe6,500,0.0001943679187493491,0.4837409669161871,0.8403079213021626,19398.868616126
343,Pb0.98Na0.02Te0.88S0.12,500,0.00020862950748677493,1.5443284352018631,0.7351517415666563,52166.919073225
10105,MnAl0.0063Ge0.027Si1.7667,500,0.00016868834842166978,2.5054082205385204,0.2527826402819696,44512.86696293589
5232,La0.6Fe2Co2Sb12,500,0.00016210325720802287,1.9578398415361988,0.33033360209779544,45501.68938983412
4615,La0.3Co3.68Ni0.32Sb11.84Te0.16,500,-0.00015593766941431284,2.2887576034510637,0.4783235997797837,82295.13512277961
15075,ErB22C2N,500,-1.1706475649900812e-05,1.4351430362740525,8.141667585132523e-09,0.17052427749993576
6414,Mg3Sb1.7Pb0.3,500,0.00021816375619838422,0.40431041064893203,0.15259094511709118,2364.915246493192
11025,NiZrSn0.98Sb0.02,500,-5.6656705910801304e-05,13.772164171841185,0.03522786659861943,302348.7220153131
9358,Mg2Si0.975Sb0.025,500,-0.0001084993457373794,4.5511882515012,0.20096972897809806,130523.82002826435
10141,MnAl0.0054Si1.7946,500,0.000171061938193833,2.537190865766587,0.22402988313915215,38849.220600865774
6415,Yb11Sb9.3Ge0.5,500,2.2691955111130857e-05,1.3184711689033768,0.011221946327828313,57481.64111671017
14223,Mg2ge0.98Bi0.02,500,-0.00025235950976667816,3.3297605674052955,1.2890360413981563,134793.42600092536
13449,Ca2.85Na0.15AlSb3,500,0.00016759152014747758,1.138832939766709,0.07415732913253152,6013.675852066291
12583,CdO,500,-0.00014739761193566464,4.972117023380788,0.0593172793660593,22134.491764142083
2056,Fe0.92Mn0.08Si2.5,500,0.00025690131190539954,9.941355165908929,0.010906083505231435,3285.5778340573142
5230,LaFe4Sb12,500,0.00010513465520351576,3.1840350957717853,0.3121940954047754,169574.49480826635
14123,CuIn0.65Ga0.35Te2,500,0.00018640048719131228,39.0533250990509,0.01080743339786967,27069.764546147642
14989,Cu2SnSe3,500,0.00011048654125230495,1.3477400042043866,0.15961129006720687,29991.76404218024
5160,Co4Sb11.625Te0.375,500,-0.00017069193343058136,2.076605144894509,0.5099073503950047,73389.18424824942
13551,In4Se2.32I0.03,500,-0.0003147734600591718,0.7875320750549387,0.6748251980754679,11348.941794287462
15780,0.05 wt% PbI2+0.3 at% In,500,0.00023829347474538712,1.3416883306224414,0.6656247407932347,31747.569581556767
16463,(Zn0.998Sm0.002)4Sb3,500,0.00017386969653042174,0.6097639297717857,0.8034572575457124,29265.002321115382
14990, Cu:Co:Sn:Se = 1.92:0.16:0.69:3,500,0.00011009744748434729,0.8403465100027125,0.26945165740336896,32715.798046880238
9614,Mg2Si0.4Sn0.6,500,-0.00016703698817089317,3.245329540352153,0.6239464286504647,135345.80779008096
6394,Ca2.5Sr2.5In2Sb6,500,0.00043523086378966837,0.7356300990705844,0.0243559041289344,189.1709181666799
14122, CuIn0.75Ga0.25Te2 ,500,0.0002230481672628381,41.90722369020719,0.009497051260791069,16095.052367564993
16464,(Zn0.997Sm0.003)4Sb3,500,0.000165673168098161,0.8847331862477121,0.5189493495224153,28000.084877457783
10150,MnSi1.73Cr0.03,500,0.00016161125330028565,2.540920814296141,0.11047535596248756,21495.291528313177
10252,Hf0.75Zr0.25NiSn0.98Sb0.02,500,-0.00011871300049480269,4.784391578331184,0.2647315898180263,157534.87257151376
15781,0.08 wt% PbI2+0.3 at% In,500,0.00022530117484810132,1.3382811213291774,0.7836365695725546,42520.73834228952
13550,In4Se2.32Br0.03,500,-0.00024365757127989165,0.8638469476483001,0.6714348332681066,21705.25741283492
15778,Pb0.995TeIn0.005?,500,0.0002426760252418433,1.5220877220899591,0.5098740357070711,27052.819202126026
9613,Mg2Si0.4Sn0.6,500,-0.00018118816636684265,2.6963241501992457,0.6182235750237756,97528.49974774737
13549,In4Se2.32Cl0.03,500,-0.0001749409396914676,0.9976187020138884,0.4215670855227717,30239.077340710508
15777,Pb0.997TeIn0.003?,500,0.00024182300998164776,1.5624024696039496,0.5857396262468278,31829.103717156388
6398,YbZn2P2,500,0.00015123365601246448,1.6745877098020792,0.051609324926652836,7491.541413042414
16461,Zn4Sb3,500,0.00016366620748010512,0.8646414718287522,0.3594704142778242,20331.839197989862