sampleid,composition,Temperature,Seebeck coefficient,Thermal conductivity,ZT,Electrical conductivity
16896,(Zn0.985Pb0.015)4Sb3,600,0.00018306679347493692,0.7210268983260427,0.9692239795166052,34262.148317832274
14732,Cu1.99Sm0.01Se,600,0.00014286958718274606,0.8716285893173614,0.6350540316111193,39935.737702180326
14322,In4Se3,600,-0.0003371622275125437,0.6268411235593447,0.436338277413046,4000.5856350346694
5148,Sr0.3Yb0.1,600,-0.00015982013376537022,3.5939305843643035,0.5463506610490356,123321.09184748992
16879,Zn4Sb3,600,0.00016880538782100348,0.8088205110441804,0.7926946983275559,37004.53630586312
14324,In4Se3,600,-0.00035379450491445735,0.6040791411092004,0.4617771433023635,3847.880356555193
13017,Zr2HfNi2.7Cu0.3Sb4,600,-0.00017110502730207242,2.618552764725217,0.4350069693697297,64196.164089005535
7554,Co0.94Ni0.06SbS,600,-0.0001849404879069975,4.590069614438119,0.20111311611792432,37047.695221156755
10087,MnSi1.73,600,0.00018487691898465332,2.5960273533284313,0.21145632342587,26767.83834280541
274,Pb0.98Na0.02Te0.96S0.04,600,0.0002253104582283353,1.4394467029508549,0.9730869420658428,45986.80972704047
8188,FeSi2.5,600,0.00024746103128431935,10.26198235915792,0.018619933878998515,5200.492935991717
16880,Zn4Sb3,600,0.00017584761102269335,0.7695905982255659,0.8462989166671266,34570.664497807156
6607,LaOBiSSe,600,-0.00014363473455339328,1.2161392179821813,0.2957105375862191,29350.34520218661
10230,(FeSi2)0.875(TiB2)0.125,600,-0.00015087892044508602,6.108011130735793,0.0664854969915865,29731.604908318364
13015,Zr3Ni1.7Pt1.2Co0.1Sb4,600,0.00016066872149678993,1.9126707178271711,0.4793546933117038,62956.389031227656
13950,Cu2Zn0.5Fe0.5GeSe4,600,0.00021419973450380848,1.111332228070895,0.20893826077411495,8434.760922872336
16881,Zn4Sb3,600,0.00018647248824499288,0.6864836102241493,0.8930485296578927,28853.768443859844
13018,ZrHf2Ni2.7Cu0.3Sb4,600,-0.00015663652199551843,2.2937608614304903,0.2725148371105899,42634.30248654442
6264,YbCd2Sb2,600,0.00018635270679463745,1.248459309428965,0.5932844854698043,37032.54172761728
10184,(FeSi2)0.745(TiB2)0.255,600,-3.139099450786538e-05,8.807291022122008,0.007909535590189485,117823.50323315588
13940,Cu2Zn0.7Fe0.3GeSe4,600,0.00023207495503401734,1.03077227133878,0.16173955226983466,5159.066944536709
6266,YbCd1.4Mn0.6Sb2,600,0.00025830706223607696,0.5592108893991579,0.4579486615438117,6504.1450971081895
16882,Zn4Sb3,600,0.0001890675319747327,0.6617677791541752,0.963852471178812,29046.951987658882
525,MnSi1.74Al0.005,600,0.00021040801820338846,2.2584045586886496,0.2630831483692289,22367.57747176616
13019,Hf3Ni2.7Cu0.3Sb4,600,-0.00012966995133458292,3.261382435429889,0.2355663582199324,76854.31520618589
13943,Cu2Zn0.6Fe0.4GeSe4,600,0.00025343405424883554,1.0922287606963743,0.15504527401173004,4394.312601758202
7555,Co0.97Ni0.03SbS,600,-0.00024975719203327565,4.4236480696574985,0.21602880504678268,20591.31943383663
16878,Zn4Sb3,600,0.00016813473715524246,1.029059726149974,0.6574675871172464,39535.21880611248
6269,YbCd1.8Mn0.2Sb2,600,0.00023807870844701407,0.5829058536637456,0.8135174166783242,14829.808965971448
13953,Cu2Zn0.2Fe0.8GeSe4,600,0.00018217234312586952,1.1193636563582698,0.15698795690958126,8825.135871628361
14323,In4Se3,600,-0.00035492341075592574,0.6027200758800679,0.4622347560198463,3854.757709092582
13952,Cu2Zn0.3Fe0.7GeSe4,600,0.00020017828300000976,1.1055062542339549,0.1937298046345033,8907.841365445978
6268,YbCd1.95Mn0.05Sb2,600,0.0002015795204174218,1.1766060717596858,0.6061441665649889,30771.470094750566
13954,Cu2Zn0.1Fe0.9GeSe4,600,0.000193000717065099,1.143947248683106,0.17014540008430984,8708.77589615844
13013,Zr3Ni2.6Pt0.3Co0.1Sb4,600,0.00016543891555697465,1.9348546041646024,0.4499976749915645,52796.59848235854
13955,CuFeGeSe4,600,0.0002334524501949919,1.0416085402781374,0.16334381159997582,5203.063119029732
5026,Sn0.3Co3FeSb12,600,0.00015047343584776693,1.5452292480757517,0.30252020945180724,33907.36430103268
13951,Cu2Zn0.4Fe0.6GeSe4,600,0.00020586689092914247,1.09124349066933,0.20141192375715145,8643.35960119711
6270,YbCd1.2Mn0.8Sb2,600,0.0001766012780692122,0.586961056621171,0.10929928755937283,3727.874126099533
10967,NbCoSn0.98Sb0.02,650,-0.00013712496291350666,6.449610681664625,0.14690699973729454,72008.04153670729
15036,Cu2In4Te7,650,0.00036610503065860237,0.6466700439766428,0.1566758196738212,1369.6093172326173
4519,CoSb2.8Te0.2,650,-0.00014397681401511088,3.839222022190286,0.38811785964025736,111333.47865912302
15046,(Cu2Se)0.985(CuGaSe2)0.015,650,0.00015211105731455278,1.0104778267295784,0.6383261027077239,42571.671729368434
4520,CoSb2.7Te0.3,650,-0.00012712515919624642,4.611966610000309,0.2515565566897759,116110.96354884215
15048,(Cu2Se)0.97(CuGaSe2)0.03,650,0.00012841434090366086,1.1480264962685438,0.5551773665138724,54716.43283932264
14360,(PbTe)0.1(Ag2Te)0.9,650,-0.000194555967025773,0.4149133597285181,1.0080151870615637,16998.94729122242
10966,NbCoSn,650,-0.00012091327165768169,6.0488495966722775,0.06091810607744773,35001.491732957875
4516,Co0.8Ni0.2Sb3,650,-8.389678639728239e-05,5.34643200049517,0.09544853103113676,131850.18145665052
4518,CoSb2.9Te0.1,650,-0.0001549381861795185,5.158526239913703,0.2977841367883605,102037.2853318179
9488,(GeTe)17Sb2Te3,650,0.00022401478547308314,1.481929896709372,1.5025698475179117,65465.65367474898
15070,CaB6:SrB6=75:25,650,-0.00011094866856288745,11.803789243753068,0.13844379554341635,181798.36229484482
9439,Pb5Bi6Se14,650,-0.00019935395016290096,0.4601191616419328,0.3981991265785352,6976.002489240371
15047,(Cu2Se)0.975(CuGaSe2)0.025,650,0.00014014732706957859,1.0622260278343365,0.5826078918695425,43465.820094854906
15043,(Cu2Se)0.995(CuGaSe2)0.005,650,0.00015077229620598064,0.8116233669289273,0.8223408519541997,38014.94612531394
15042,Cu2Se,650,0.00016783260530580947,0.7885073946361418,0.7973202348906889,29591.481216596127
15069,CaB6,650,-0.00011350354574036104,18.28976781521684,0.11218516509070238,212456.74667967745
15044,(Cu2Se)0.9925(CuGaSe2)0.0075,650,0.00015096290201144455,0.77528373108449,0.8652990325794926,39301.17644665348
4515,Co0.9Ni0.1Sb3,650,-0.00015220139199338564,3.9897499268462666,0.25303917856610475,68694.13401191808
9487,(CoGe2)0.2(GeTe)17Sb2Te3,650,0.000239563734542892,1.4821259947324903,1.6346875923148028,64207.707747858694
9486,(CoGe2)0.2(GeTe)17Sb2Te3,650,0.0002460624839037903,1.4882238683107532,1.5667121183874182,58730.88319730219
9489,(GeTe)17Sb2Te3,650,0.0002130270982525941,1.4821676931723928,1.4242073125331798,74746.6771754208
15025,YbSb2Te4,650,0.00011002264635717666,0.7541799531197646,0.378969939699358,32876.42385302908
14733,Cu2Se,650,0.00016977099471232206,0.8491252187145638,0.6904328081880788,28508.122624960455
5148,Sr0.3Yb0.1,650,-0.00016777680188160928,3.479299138308622,0.6180965490018255,115501.74222401975
14510,Cu1.85Ag0.15Sn0.9In0.1Se3,650,0.0001539422354569159,1.0615152814617708,0.5860769457407741,33868.69899945667
14731,Cu1.99In0.01Se,650,0.00020807604069382496,1.0887136423893249,0.4435396913209799,15916.958349745075
9425,(Mg2Si0.995Sb0.005)0.4(Mg2Sn)0.6,650,-0.0001782940708264327,2.527049608173871,1.0180014824631471,122294.12241998261
14511,Cu1.85Ag0.15Sn0.85In0.15Se3,650,0.00014210126154858113,1.015234061732179,0.6318311854779879,44321.69951042794
14732,Cu1.99Sm0.01Se,650,0.00015363805588910248,0.8412724209103388,0.7192793674550708,36102.47667116292
5026,Sn0.3Co3FeSb12,650,0.00016123978396920458,1.5851845867804817,0.34377676948215297,33335.254726724284
9424,(Mg2Si0.9975Sb0.0025)0.4(Mg2Sn)0.6,650,-0.0002660799684727321,1.8654649002132933,0.4623947418592929,17946.40507320734
2380,Ba8Cu4.5Si6Ge35.5,650,-0.0001228675862179799,0.7573547223900334,0.07743095317093207,6029.376022829167
5147,Sr0.3Yb0.2,650,-0.00015260188651503557,3.5408000137063413,0.7403241163876604,171039.41693769072
5146,Sr0.3Yb0.3,650,-0.00014101205022186598,3.561448344151501,0.7297204107828877,202047.06566292094
15233,CsAg5Te3,650,0.0003326468017818294,0.1809298361657342,1.0474438472731382,3032.775569760666
5027,Sn0.4Co3FeSb12,650,0.00015457804785818226,1.6359226443102943,0.3096499585557229,33444.837485462485
2377,Ba8Cu4.5Si6Ge35.5,650,-5.1967381009008176e-05,0.6070235285211254,0.007700880788465979,2423.2803785677625
2376,Ba8Cu4.5Si6Ge35.5,650,-0.0001067890915519003,0.6033598438775982,0.01989582804777079,1571.3578982394863
9423,(Mg2Si0.9875Sb0.0125)0.4(Mg2Sn)0.6,650,-0.000287062415519443,1.8012308997207462,0.4222536625365683,13646.484835164452
14506,Cu1.8Ag0.2SnSe3,650,0.0003727341444760079,0.5707424866859326,0.3810865823809447,2308.3196905662235
4722,Yb0.35Co4Sb12,650,-0.00017943964276899652,2.9703477998651406,1.0199824611606367,143793.3551716254
14507,Cu 2SnSe3,650,0.0001730108247878724,1.3222619130708688,0.25020405538903445,13728.393273110154
14729,Cu1.99Fe0.01Se,650,0.00012555314926348792,1.0185448984684669,0.6746410993509321,62651.01041745455
4723,Yb0.4Co4Sb12,650,-0.0001655996359547348,3.2098165662355806,0.8956649375349651,161285.17968369403
4724,Yb0.5Co4Sb12,650,-0.0001541599859993268,3.314999923755717,0.7894337266895465,170858.1087623816
14509,Cu1.85Ag0.15Sn0.95In0.05Se3,650,0.00019406007750906825,0.7723355427958714,0.4674870181646402,13444.618684309351
4725,YbCo4Sb12,650,-9.998500035381707e-05,5.420020655769721,0.34121655695697706,278562.63833849377
14508,Cu1.85Ag0.15SnSe3,650,0.0003260090359931913,0.6444923888759118,0.4351307425312704,3264.1580265973994
14727,Cu1.99Zn0.01Se,650,0.0001324743728813718,0.9081549814897948,0.8191484541201707,53509.790174679656
15232,CsAg5Te3,650,0.00032006770470149176,0.1936193847609215,1.0460185877048505,3361.3423193050567
9426,(Mg2Si0.9375Sb0.0625)0.4(Mg2Sn)0.6,650,-0.0002575837732617704,2.9484697546729914,0.4763385440955729,36082.25078097783
14505,Cu1.85Ag0.15SnSe3,650,0.0003258655966294892,0.6398285341500278,0.4337909365822902,3345.5494943763106
14728,Cu1.99Ni0.01Se,650,0.00015324825186308213,0.7530859775652434,0.9582416260061803,41524.382430139216
4721,Yb0.3Co4Sb12,650,-0.0001851297928524005,2.9741692256136694,0.9542330071714163,127453.7369765152
14538,Cu0.2Ag2.8SbSeTe2,650,0.00029338699519608567,0.5357534141467089,0.8754627222530066,8383.155664927279
14539,Cu0.2Ag2.8SbSeTe2,650,0.0002741263081886071,0.5780378991929942,0.7765511714771935,9189.917276089896
15211,(Ag0.03PbTe)0.945(Ag2Te)0.055,650,-0.00024988449775157403,0.8606351659964533,0.92530726509628,20500.928889206512
5139,Sr0.22Co4Sb12,650,-0.0001669713920868887,3.72850143792872,0.5586509973963784,111196.47935793537
15210,(Ag0.02PbTe)0.945(Ag2Te)0.055,650,-0.00024789153847449267,0.8319039161121156,1.0187961452144445,22005.303953884544
2386,Ba8Cu4.5Si6Ge35.5,650,-8.895747030252316e-05,1.8604021424230017,0.2255796603632465,83296.58360694647
4347,Yb0.05Co4Sb12,650,-0.00017779193995638736,4.3704029259836,0.08263931970013241,19458.19846482567
15201,Cu25Ga25Te50,650,0.00016974831216312288,2.3050986870962467,0.27166866710461035,26844.004329310363
14536,Cu0.1Ag2.9SbSeTe2,650,0.0002551579680813574,0.6296896288651439,0.4902445547839373,7294.704306453786
15199,CuGaTe2,650,0.00018171075496378183,1.774730359891215,0.3877961072882482,28134.500491193994
14537,Cu0.2Ag2.8SbSeTe2,650,0.00028234861117430515,0.5758382546543681,1.6061661769097315,17848.688936049828
5024,Sn0.1Co3FeSb12,650,0.0001278348630601809,2.2746785114132146,0.1925557080300108,42569.00309111219
14535,Ag3SbSeTe2,650,0.00024015249572144828,0.6244000806812918,0.28815103000455805,4799.495199272142
14783,Mo2.6Fe0.4Sb6Te ,650,8.705870623311434e-05,5.074698049309624,0.17992291270492108,185619.34668830736
15208,Ag0.04PbTe,650,-0.0002454781945900925,1.2926628428083722,0.6721602032919298,23766.84129941173
15320,TiO1.77,650,-8.239772971922576e-05,3.4174354751136287,0.08584263837554244,56676.52391712418
14550,La3Te3.6Pb0.4,650,-6.779207547163017e-05,2.795887942477437,0.1825249560857351,137184.07530234448
5023,Co3FeSb12,650,0.00011809519673179756,2.7364350129514783,0.16227019786210595,50973.92402501723
14774,Mo2.9Fe0.1Sb7,650,4.505655088698632e-05,6.562519313780265,0.08755553312514275,410205.23689939635
14778,Mo2.55Fe0.45Sb7,650,6.460899543386523e-05,4.690584823063826,0.18595448540782167,294709.28799017635
14782,Mo2.6Fe0.4Sb6.25Te0.75,650,7.882668037168925e-05,4.118110302464255,0.22649539740574545,215640.81224646122
14546,La3Te4,650,-7.708799188999858e-05,1.943605746547804,0.18709153169725268,80000.96953480548
15209,(Ag0.01PbTe)0.945(Ag2Te)0.055,650,-0.00024548149563436133,0.8579128474999328,0.9372389888281498,21002.33287475296
15321,TiO1.83,650,-0.0001273653732623291,3.1614447883987897,0.10135934770212204,25699.26539763811
15202,Cu29Ga22Te49,650,0.0001301696987518942,2.2798442714692064,0.09350284540715713,18149.331407773534
14781,Mo2.6Fe0.4Sb6.5Te0.5,650,7.388124416881283e-05,4.6159513919633115,0.21448920597497265,267957.1919657654
14547,La3Te3.9Pb0.1,650,-8.065703238712049e-05,1.566607673872124,0.16999780499178824,68397.39600319072
15322,TiO1.90,650,-0.00022797832294858486,3.2419779874729753,0.09447321865142584,8484.150735592853
15203,Cu25Ga26Te49,650,0.00017661653238070809,1.7262161337587334,0.3980200411054289,28079.83485731025
14548,La3Te3.8Pb0.2,650,-8.227750777820246e-05,1.5611349626488047,0.2608565745272749,75735.71527685187
5140,Sr0.19Co3.98Ni0.02Sb12,650,-0.000182637914969614,3.5765958411554166,0.6546374083202109,109182.85699460117
2384,Ba8Cu4.5Si6Ge35.5,650,-8.606753728330167e-05,2.0165270027163715,0.19882695122494096,82149.51810350602
15387,Mn0.97Ag0.03Te2,650,0.00022050938421323897,0.7278817066583658,0.4613317484642802,9226.3890282668
4831,Ba0.15Yb0.09Co4Sb11.86,650,-0.00017627303623056153,3.314135826190544,0.9135446141032996,151612.4001956562
15386,Mn0.98Ag0.02Te2,650,0.00023824315555515956,0.8192875397889235,0.32515206233112104,6320.663018741697
5143,Sr0.26Co3.95Ni0.05Sb12,650,-0.00015259002250735864,3.8920669869371247,0.7343413869458748,188625.9983734923
15385,Mn0.99Ag0.01Te2,650,0.00024604695013074246,0.9064485572711842,0.2394990406408331,4728.840416308558
15384,Mn0.995Ag0.005Te2,650,0.0002766048623248825,0.9704237532171084,0.1339426694216322,2533.6366845499824
4830,Yb0.14Co4Sb12.05,650,-0.00020724537631593514,3.0370677208859487,0.9744225731031201,105867.69426570076
15388,Mn0.96Ag0.04Te2,650,0.00021157315105170863,0.6954335999005771,0.42261856638988254,8827.220115978958
5025,Sn0.2Co3FeSb12,650,0.0001486884091447497,1.7359638664805033,0.2922888822961865,35886.285150285
4829,Ba0.23Co4Sb12.22,650,-0.00016621024339152563,3.922953101567433,0.8264889329302192,179672.765643235
480,Fe0.98Zr0.02Si2,650,7.409111476695487e-05,7.98871632032663,0.0009506190945298947,1894.0865278973263
15383,MnTe2,650,0.00033725006382811135,1.0623668298018425,0.1335243141430992,1574.333297831985
5141,Sr0.23Co3.95Ni0.05Sb12,650,-0.000157808853208502,3.73939382468696,0.7047005281399785,155958.6913872835
4838,Yb0.6Co4Sb12,650,-0.00014624704544903227,3.2275538760456817,0.7958318094099736,178416.3730795259
2385,Ba8Cu4.5Si6Ge35.5,650,-0.00010259746964442672,0.9865112708334892,0.21493075931584826,36504.80613680544
5142,Sr0.21Co3.92Ni0.08Sb12,650,-0.00016671075109163646,3.6723638810280654,0.6906822118334173,134159.46896897454
4832,Ba0.24Yb0.12Co4SB11.85,650,-0.00015949004360845106,3.5836838790706813,0.9331156707879876,203113.29474003465
4833,Ba0.14Eu0.13Ci4Sb12.05,650,-0.00015806696024108072,3.8874606071930535,0.923502001617832,223669.13150825718
2382,Ba8Cu4.5Si6Ge35.5,650,-9.250131796153007e-05,1.353932235602059,0.2408013175213011,59099.49389346841
15024,(Cu/ Fe)Mo6Se8,650,6.459012189303042e-05,1.5035314248673002,0.17848149877386293,92838.06543282246
15085,La3Te3.80Sb0.20,650,-6.149022527403031e-05,2.634173328896096,0.1315988204246654,135106.65834485684
15086,La3Te3.65Sb0.35,650,-7.99955318769896e-05,1.9954589589532847,0.14875970955632176,57099.285850947126
5160,Co4Sb11.625Te0.375,650,-0.00019261690911232776,2.2397148146151333,0.6828072851759527,65460.365200054446
14992,Cu:Co:Sn:Se = 1.82:0.16:0.76:3,650,0.00023312093809197285,0.7221859960818348,0.36445269547092896,7586.142665147732
9482,(CoGe2)0.15(GeTe)12Sb2Te3,650,0.00024405623634279848,1.5056132026045252,1.0869161472134783,41304.00697498002
14991, Cu:Co:Sn:Se = 1.94:0.15:0.71:3,650,0.00019570005772409784,0.7029458370868403,0.3638323720360426,10912.491756889869
15467,MgFe2O4,650,-0.00014028598170928516,4.7790202750882145,0.0020023232054052226,620.8861633275637
5161,Sn0.25Co4Sb11.625Te0.375,650,-0.00021515705054035768,3.785390392632069,0.5928962781438373,77373.43016227469
10902,Sr2ErRuO6,650,-0.00012401879840194744,0.26857642897768136,0.000105527759875376,2.8349553232069526
15084,La2.99Te4,650,-5.341900090472619e-05,2.776687489688336,0.09448636104726328,138305.93134582852
4618,La0.3Co3.68Ni0.32Sb11.84Te0.16,650,-0.00017715997555332167,2.313641855680956,0.6197233064063536,69442.17883710969
14990, Cu:Co:Sn:Se = 1.92:0.16:0.69:3,650,0.00014768588529742388,0.6550754914665345,0.4884524090030791,23896.520476803016
14450,(Ag0.885Cu0.1)2Te,650,0.00016118100977955332,0.5322458284148892,0.8259327362302651,22229.25372733557
5159,Sn0.25Co4Sb12,650,9.046690495121346e-05,2.4062527846108974,0.12827302152855755,61150.24386897423
14979,Tl8GeTe5,650,0.00016462971631430698,0.255569969076628,0.5054054493944454,7184.534223654588
14685,Cu2CdSn0.95In0.05Se4,650,0.0003274117095729144,1.0890008628165853,0.12442499055981865,1609.357471113365
14451,(Ag0.785Cu0.2)2Te,650,0.00015550349572189905,0.5313756587384479,0.9221271434387064,29791.324287436622
14989,Cu2SnSe3,650,0.0001474221855606719,1.0068224231455092,0.2982107482238505,21242.753534189447
4619,Co0.92Ni0.08Sb2.96Te0.04,650,-0.0001521593105553176,3.9673057671869656,0.3715444773069584,96155.2069196275
14984,Cu2ZnGe0.9In0.1Se4,650,0.00017883500254874774,1.3164055814483513,0.2850385049838224,20091.470485455382
14983,Cu2ZnGe0.95In0.05Se4,650,0.00018770048967399366,1.6393283875304858,0.24216117368609275,19500.00260643781
15089,La2.74Te4,650,-0.0001467669073983949,1.0604213562643108,0.375637511719033,24417.519278588505
9485,(GeTe)12Sb2Te3,650,0.0002198405958804024,1.5053542079133158,1.0908697279736128,50846.242193326514
9449,Pb3Bi2S6,650,-0.0001682455661131749,0.7101567923145892,0.20687430653367436,8228.566670912289
4616,La0.3Co3.68Ni0.32Sb11.84Te0.16,650,-0.0001802381926529835,2.015368274052718,0.9006795177207442,80951.23922161543
15017,Ag9GaTe6,650,0.0002536086140950619,0.4021903443158626,0.3616264547332769,3235.557854265458
15073,SrB6,650,-0.00014381698441878407,18.018283648376947,0.11404499923825047,135512.04824273975
15075,ErB22C2N,650,-1.480244157692809e-05,1.5185996786708582,2.2401226953326267e-08,0.2388553876443028
15018,GeSb6Te10,650,8.920779743069402e-05,1.4998877783869342,0.3000446792622853,87506.66072772388
15072,CaB6:SrB6=25:75,650,-0.00012753736241260307,13.665053798577011,0.1292844401606307,148611.8118509549
15023,Ag3.8Mo9Se11,650,0.00015567990274019917,0.7987246438835709,0.4866131696298416,22686.908737811
15071,CaB6:SrB6=50:50,650,-0.00011568632475518772,10.959656894442459,0.16047835219255407,181846.35263916678
15022,Ag3.4Mo9Se11,650,0.0001209927377799198,1.194976047091179,0.335353247433549,37193.86026738504
15488,MnSi1.73,650,0.00018828204556613969,2.4790661776417284,0.3591012929332564,38579.708852224125
15021,GeIn0.6Sb5.4Te10,650,0.00014444740990645532,0.5883006810543079,0.6618439823894996,28424.353469272584
15487,Mg2Si,650,-0.00016329272586232575,3.733971725321937,0.4476680472469304,84226.15106321106
15003,(CuInTe2)0.995(2ZnTe)0.005,650,0.00027881086311142646,1.765608548548702,0.4465007916757993,15602.13091823375
4617,La0.3Co3.68Ni0.32Sb11.84Te0.16,650,-0.00018981169655796828,2.225289736518909,0.815120017512859,72759.30873279151
15077,ErB22C2N:ErB4,650,-2.339079996725229e-05,2.038256037677733,8.892185542306291e-07,5.096402814568153
9483,(CoGe2)0.15(GeTe)12Sb2Te3,650,0.00024221244376325542,1.478418979471248,1.1759445878920616,44558.968516067165
4615,La0.3Co3.68Ni0.32Sb11.84Te0.16,650,-0.00017438578268214234,2.4231292300277927,0.7104478300828481,84421.68949191805
4230,CuGaTe2,650,0.0002872794899196462,2.4512854187659516,0.3225629488397665,11959.621903119909