sampleid,composition,Temperature,Seebeck coefficient,Thermal conductivity,ZT,Electrical conductivity
10978,CoO0.09N0.91,200,-3.996734012406182e-05,3.3653977065615512,0.0015268486439163073,16083.919607397936
12011,Bi85Sb15,200,-0.00010245914295703812,1.3732134469858628,0.17339446471797249,113457.09563306099
11959,Bi85Sb13Pb2,200,6.975592628382335e-05,3.0851372971936266,0.06491331920181058,201401.60516303033
13451,GaSb-FeGa1.3,200,0.00040132062656841904,0.7831658695746755,0.13531581199346798,3289.950333296258
11958,Bi85Sb14Pb1,200,7.35528083919466e-05,3.042864853120668,0.06929627604492633,187125.84184090095
13453,GaSb-FeGa1.3,200,0.00013957471639184494,0.5104080016218834,0.0217849945065688,2853.851856537229
13452,GaSb-FeGa1.3,200,0.0003500812566503219,0.5991926856573584,0.2486171618574461,6077.568934006307
12017,Bi85Sb14.5Nb0.5,200,-0.00011763115735689314,2.1330001889958865,0.1973051416830625,156868.3336415192
12014,Bi85Sb10Ag5,200,-8.494344865234839e-05,1.6082031891245483,0.07489932305378766,82584.51042994519
12015,Bi85Sb8Ag7,200,-0.0001045958262956975,1.5018552797962241,0.1645171638650209,126142.97442888068
13567,Cu1.98Ag0.2Se,200,6.087579863934909e-05,0.7354282556734463,0.046840247757407215,50947.061178975164
11941,Bi0.67Sb0.33,200,-6.115596785781434e-05,2.898056448119353,0.035940450414677916,127408.00495448092
11942,Bi0.85Sb0.15,200,-0.00011085229960140071,2.786878996468602,0.11191122478821396,113450.69558786682
11940,Bi0.67Sb0.33,200,-6.147445690012627e-05,2.3927588526583268,0.021167528770204308,63313.72263833514
11075,Sr0.95 La0.05 Ti O3,200,-8.806560322137326e-05,7.334963804492563,0.055243854037421616,242686.4424068383
12016,Bi85Sb15,200,-9.980690239873756e-05,1.8903012541793889,0.08496200008810663,80404.74376588082
6447,Y1.5Gd1.5Cu3Sb4,200,5.608593910007415e-05,2.6576307210266017,0.021481242344079943,100310.3048221458
11074,Sr0.95La0.05Ti0.02Mn0.0126O3,200,-0.00010690514940022328,3.428007191204676,0.10277503507519133,150193.72728818006
16237,FeGa3,200,1.1428815797625682e-06,7.74340014653079,8.641922338409975e-07,25615.898850455244
16338,Ge4SbTe5,200,0.00011575481827374626,1.2354324624501998,0.0622139008594487,26103.109123765826
16344,GeSn3SbTe5,200,4.0844623454273936e-05,1.3467552076286418,0.021230985538283655,85695.69968889777
16848,Bi2Te2.7Se0.3,200,-0.00018900949077934129,0.5770932042894625,0.2842561294253098,18810.047541172018
16343,Ge1.5Sn2.5SbTe5,200,4.492949406488514e-05,1.1923950598481778,0.02823185692194745,83380.89652042584
16342,Ge2Sn2SbTe5,200,4.8864291508659806e-05,0.9562429586936548,0.03814091513336497,76374.10802733406
16341,Ge2.5Sn1.5SbTe5,200,5.462842440383393e-05,1.3452682534745166,0.03244941696981711,73138.90373102846
16340,Ge3SnSbTe5,200,6.268138773822136e-05,1.3001190893667056,0.04279582213512473,77003.17145643372
16850,Bi2Te2.7Se0.3,200,-9.459551998754636e-05,0.8753761941448678,0.08194433484584145,35945.15261135813
16339,Ge3.5Sn0.5SbTe5,200,9.104928502861688e-05,1.2619806400838829,0.05213038611250238,39678.98541745926
2871,Co2TiSn,200,-1.0585921254665443e-05,5.644683039950189,0.0013703863484761714,345139.9805075103
2868,Co2Mn0.2Ti0.8Sn,200,-2.1381488040286525e-06,2.1339626274288315,2.719739750039667e-05,63475.81842661223
2866,Co2Mn0.4Ti0.6Sn,200,-1.578509762570147e-06,3.4872690286016716,3.687816972049474e-05,258065.6915951538
2865,Co2Mn0.6Ti0.4Sn,200,-1.178357982160189e-05,4.372147254663391,0.0014237044355064653,224145.5529757936
2864,Co2Mn0.8Ti0.2Sn,200,-5.61836170299058e-06,5.7207778304829775,0.0006354805397492902,575848.1181573083
16345,Ge0.5Sn3.5SbTe5,200,3.489702724837526e-05,1.784441883994098,0.018580887868495214,136132.55951193415
14652,Cu5SmSe4,200,3.3420203328680843e-06,8.400969585372339,3.080332415920418e-05,115845.4090230482
17135,Zn4Sb3,200,0.00011785428048807715,1.7044040769133988,0.05492998633700734,33702.439526104325
17120,Zn4Sb3,200,0.00018229510147375194,0.5898407280703553,0.08550950975857059,8805.376481724632
14688,GaPd2,200,-7.709802684847406e-06,28.45794643436851,0.002342198305013921,5606743.61915944
14687,GaPd2,200,-5.287711251405317e-06,15.799273913388289,0.0010729922024138934,3031574.4346931977
14689,GaPd2,200,-7.042241252414155e-07,28.831288841316024,1.904597607298497e-05,5536247.507329087
16847,Bi2Te2.7Se0.3,200,-0.00014557450356579265,0.3417757941413793,0.19870681320500852,14263.745899918324
4708,Ca0.10Co3.95Ni0.05Sb12.34,200,-0.0001130870171340388,5.748885510740419,0.0004437365519785751,997.3632704640089
16515,Zn4Sb3,200,7.721482929857185e-05,1.3015082426790856,0.006390525906443415,6975.126617971436
16514,Zn41Sb59,200,0.000175407649403547,0.16303238535336353,1.3892448059309054e-05,0.3680659237246235
4712,Ca0.18Co3.94Ni0.06Sb12.40,200,-8.828634644262391e-05,5.5650288596888915,0.05273958902679512,188272.58125921505
15050,Y1−xB28.5C4,200,-1.973513484783928e-05,0.9891757878521936,1.7314782204772744e-09,0.02198772611077552
4705,Ca0.08Co4Sb12.45,200,-9.130403659663014e-05,5.2686402211491465,9.762245568797819e-05,308.48803115946214
4706,Ca0.08Co3.98Ni0.02Sb12.15,200,-0.00011700350520653369,5.7971849215402935,0.0002734009361021019,578.8811531511479
4707,Ca0.10Co3.98Ni0.02Sb12.15,200,-0.00011276677357480402,4.759166479466634,0.00039567350769429663,740.4156075065048
15079, Mo3Sb7,200,1.2959356738166865e-05,4.541335854355002,0.004480008166978042,616073.1235822146
15080,Mo3Sb6.7Te0.3,200,1.4662256120066422e-05,4.448124643392938,0.004285007090450482,515162.3139788578
1353,CoGe,200,-6.984434707676296e-05,9.531902700185595,0.05227839770231781,510751.145704052
1354,Co0.96Fe0.04Ge,200,-1.3309117454366965e-05,7.261389131973216,0.000888112911448986,182036.88008959228
1355,Co0.88Fe0.12Ge,200,2.474511231151943e-05,7.474172323261151,0.0026699833075129174,162953.16444138426
1356,Co0.8Fe0.2Ge,200,3.191769885447416e-05,7.453433851702646,0.0057012707306227425,208561.8759970857
1357,Co0.7Fe0.3Ge,200,1.9459514530794908e-05,5.97117613602862,0.0026630896619080943,209967.30414960906
1358,Co0.96Ni0.04Ge,200,-3.848519910535456e-05,8.81612732238504,0.019497140151099046,580271.5738326422
1359,Co0.92Ni0.08Ge,200,-2.4579085467787435e-05,9.837357447135359,0.00830090197095202,675837.5254650711
1347,Si0.8Ge0.2B0.016 (CrSi2)0.091,200,0.00022245820254299014,1.4649970564929984,0.03186209025304498,4716.112672801452
1346,Si0.8Ge0.2B0.016 (CrSi2)0.091,200,0.00020843855680042188,2.9545397916699403,0.06547886470112528,22264.08613748433
16570,(Zn0.99Ag0.01)4Sb3,200,4.9187340233762186e-05,1.3824457883847006,0.035883319909750924,90726.4038839602
1345,Si0.8Ge0.2B0.016 (CrSi2)0.091,200,0.00019825956307795145,3.0657321832913724,0.06910589867910877,26949.5207806918
1344,Si0.8Ge0.2B0.016 ,200,0.00013375343450568078,2.622850399791882,0.06633479275992846,48626.72446558778
4709,Ca0.20Co4Sb12.46,200,-8.099967019989626e-05,3.8190720112595775,0.011683119492516998,34003.22969032037
4710,Ca0.15Co3.98Ni0.02Sb11.80,200,-9.120267994509355e-05,4.234523498822523,0.0457594386366026,116476.96330374955
16673, AgSbTe2,200,0.0001527911316849993,0.7703413176569849,0.13731048686742564,22654.819599822396
15028,Ag2Se,200,-0.0001023181790361383,1.0771602212239026,0.2803175067049199,115400.20404003035
16346,Sn4SbTe5,200,2.7910191068044347e-05,2.454273187681314,0.012093463721033787,196315.81932421075
14882,Bi1.7Pb0.4Sr1.5Nd0.5Ca1.1Cu2.1O,200,1.923636871293273e-05,2.4445178341271703,0.0006097983263840413,20142.03085088629
14881,Bi1.7Pb0.4Sr1.7Nd0.3Ca1.1Cu2.1O,200,9.75039748603093e-06,2.3761787588080003,0.0002492722280515392,31151.457284571312
14880,Bi1.7Pb0.4Sr1.8Nd0.2Ca1.1Cu2.1O,200,-1.6844089687651082e-06,3.6274580058140082,8.158004160513748e-06,52150.830608583514
14879,Bi1.7Pb0.4Sr1.9Nd0.1Ca1.1Cu2.1O,200,-2.069844069024157e-06,4.037620762308622,2.400115215399397e-05,113097.332258382
14878,Bi1.7Pb0.4Sr2Ca1.1Cu2.1O,200,-3.977398107813872e-06,3.812192306710213,0.00012795577659424843,154172.37984033205
16353,As1.965Bi0.035Te3,200,7.643835045223687e-05,1.1229892395711063,0.10662345205232343,89998.52193890768
16352,As1.975Bi0.025Te3,200,7.696922175022937e-05,1.115870942262316,0.098107291848151,89624.02213862918
15207,CeOs2Al10,200,2.2003400133968537e-05,6.146070047151209,0.0031433136487204263,199515.03800348254
16829,Ag0.8Pb18SbTe20,200,-0.00014625638129071305,1.973533718510744,0.15822022736296,66449.14223059935
16830,Ag0.8Pb18SbTe15Se5,200,-0.00015710767674467758,1.3186116962815577,0.3222724238201823,83850.93218814253
16351,As1.985Bi0.015Te3,200,6.823600176389506e-05,1.2610619851531544,0.09926684337133444,111508.43041408196
16831,Ag0.8Pb18SbTe10Se10,200,-0.00012225736776725783,1.2308657597810722,0.3244707116496636,134399.78539117618
16832,Ag0.8Pb18SbTe5Se15,200,-3.86964760013182e-05,0.9638982462957624,0.033759067909100965,95605.23171015564
16350,As1.965Bi0.035Te3,200,7.693256918298495e-05,0.7150006621199962,0.08119599463032763,42247.2268308095
16349,As1.975Bi0.025Te3,200,7.733848530202209e-05,0.8341226864623505,0.0776437652980868,46285.57639634193
16348,As1.958Bi0.015Te3,200,7.379648470478463e-05,0.6076233736002927,0.08630275053703282,39057.1920687952
15193,SnSe,200,0.0003821154198653939,0.21399140324823696,0.00019516933295775482,1.4301736813283454
15194,SnSe,200,0.0004851093237402003,0.08597989693009384,0.0006162065467036303,1.1256775089175477
15083,Mo3Sb5.2Te1.8,200,4.039746269549448e-05,4.994417388961479,0.006996000335656095,96028.33109930881
16787,Bi0.45Sb1.55Te3,200,0.00021165691078544598,0.435491636793802,1.102305163561768,46462.17081406885
16788,Bi0.45Sb1.55Te3,200,0.00017047588056384434,0.4757794545570677,0.7403557839955441,51657.03511553803
16789,Bi0.48Sb1.52Te3,200,0.00016817610171359308,0.4982724720713309,0.7087660384985837,53025.64181572786
1859,SnCCo3,200,5.0645393903094516e-05,2.514326466113573,0.023804742913386856,139862.8455940148
1864,Sn0.95Sb0.05CCo3,200,4.874270572681949e-05,2.5879579776028447,0.029591616350416336,161167.1943011907
1892,Y3Ru3.2Co0.8Ge13,200,5.096565113789599e-05,2.4712548530378164,0.0077261192413725,36753.08439256447
1891,Y3Ru3.6Co0.4Ge13,200,4.172284216805623e-05,3.1946843735028936,0.005984952917814735,54917.52167119504
14590,K1.25Pb3.5Bi7.25Se15,200,-1.7849181206488062e-05,1.1982729685517544,0.004504213152194164,84704.81610047088
14591,K1.46Sn3.09Bi7.45Se15,200,-3.946304636458567e-05,1.010590015091854,0.00373402066913524,12115.47677573931
5125,Ca0.08Co4Sb12,200,-0.0001082595741520516,5.8927690913872315,0.015077033727336044,30475.62632432797
17200,Zn4(Sb0.99Se0.01)3,200,8.704957063226687e-05,0.9034057846480572,0.024780230133296333,16320.61193899121
17294,CePd2Pt,200,0.00010623125762721116,5.819511638685256,0.2479195266977712,669870.9019275864
17295,CePd2Pt,200,0.00010784251680172808,6.150589998002291,0.2525329411412096,625055.1883593862
15761,SnTe+1mo3%PrTe,200,2.387645492792103e-05,34.99949976969962,0.00028514507567377665,87530.22146770282
17201,Zn4(Sb0.985Se0.015)3,200,4.736482471389038e-05,1.298526392505283,0.01612662463383445,46671.56821782402
17259,Bi,200,0.00010192762516096592,8.597915142833282,0.2829405607068473,1170778.0121066873
15759,SnTe+1mol%PrTe,200,0.00013306598463389205,50.103379332129116,0.004722526399659422,66815.51399540884
17292,CePd3,200,0.00010232590561761252,8.269001436515763,0.1865892753714815,748782.2535098294
14584,Cu2Ga4Te7,200,0.00011074411269145156,2.2084615972939696,2.698761053763378e-10,0.00024298697510093632
14576,CuGa3Te5,200,0.00023832132024651358,0.8038931308383013,8.396321292561342e-07,0.059419853771194624
1867,Sn0.9Co0.1CCo3,200,1.6211737786106352e-05,4.918577087283534,0.003213245766579276,300672.90200686536
17293,CePd2.5Pt0.5,200,0.00010491126778742186,6.618447482385608,0.2152409040283293,646585.8846788821
15760,SnTe+2mol%PrTe,200,7.135599668777991e-05,42.02131437389031,0.0019007775252710358,78435.01279317976
14619,Ba0.5Cr5Se8,200,0.00015263718343581635,1.031991123998405,1.4484064602810333e-08,0.003207862410055064
1887,Y3Ru4Ge13,200,3.30608364236128e-05,3.270517949389369,0.0006551275152208338,9801.323141853509
17160,Zn4(Sb0.995I0.005)3,200,9.049504006627938e-05,1.0878718157393252,0.04662259009965461,24816.40136360808
1889,Ho3Ru4Ge13,200,3.0987469475462154e-05,2.333794772476764,0.0009325272016744797,11332.401478577343
15901,CsBi4Te5.6Se0.4,200,0.00010228460560166188,1.424501634414186,0.019535265841517043,13170.628091854356
1888,Dy3Ru4Ge13,200,3.0324223811638408e-05,2.000308836418615,0.00101305882454445,11018.496424379908
14622,Ba0.55Cr5Se8,200,6.972950369012784e-05,0.8415794237011479,4.711840509551105e-09,0.004077768310013218
17256,Bi-85%,200,5.5890781752422984e-05,3.222248084153862,0.012516270318530287,64554.05743207601
14621,Ba0.52Cr5Se8,200,8.279699852818921e-05,0.933673773384972,5.370036720585646e-09,0.0036569012473342344
17258,Bi,200,4.613441490890098e-05,14.082541673378673,0.04105528848887639,1358220.0066761978
15899,CsBi3.6Sb0.4Te6,200,8.706123983912531e-05,1.878041327372021,0.11808323318207295,144324.57965912062
17257,Bi-92%,200,5.895786502313548e-05,6.964977021154176,0.04201839188461695,420964.6446265866
14620,Ba0.51Cr5Se8,200,0.00011525466026716472,0.853308382525731,5.8017435425107955e-08,0.01863449183736101
17255,Bi-78%,200,5.5780060361385925e-05,2.0537311895435306,0.0035048422685989887,11567.090169006116
15884,Rb2BaCu8Te10,200,1.99052996486851e-05,1.9066411550784172,0.0004660165560043455,11212.51079003634
1890,Lu3Ru4Ge13,200,2.7893265857839343e-05,2.559895534676166,0.0009287935679129236,15279.625638576188
13402,Cu2Mn0.1Sn0.9Se3,250,1.918521029602596e-05,5.451218289302331,0.007177704931771383,409905.883038159
13324,CrSb1.95Te0.05,250,-7.190150947836972e-05,8.781076335761504,0.010924077128922443,77116.60810034636
13398,Cu2Mn0.005Sn0.995Se3,250,3.90387171811476e-05,2.4826882181286054,0.014964860526263004,90190.08625434646
13399,Cu2Mn0.01Sn0.99Se3,250,4.397279756587657e-05,3.8235983514780743,0.017149425505622554,127401.7863288146
13400,Cu2Mn0.02Sn0.98Se3,250,5.1053637721007126e-05,5.170073224191578,0.02218796724595284,173017.37750330888
13401,Cu2Mn0.05Sn0.95Se3,250,3.135903061675839e-05,4.587979722175487,0.015053661044737569,266486.6393919619
13321,CrSb1.98Te0.02,250,-8.418361846113703e-05,9.38599768980492,0.009065717406874505,56794.26202797959
13322,CrSb1.99Te0.01,250,-9.157955907410156e-05,9.330420990431607,0.010930204931352052,54165.871981149656
13323,CrSb1.97Te0.03,250,-8.563618291757284e-05,8.915545633360246,0.012157159756442416,64890.669053501784
15759,SnTe+1mol%PrTe,250,0.0001394187423497292,45.066893419210366,0.0058671343364214154,54412.83123256693
1892,Y3Ru3.2Co0.8Ge13,250,4.7828237787575814e-05,2.67808134558412,0.00928693130686583,43489.781869082864
16409,In2(Te0.90Se0.10)5,250,0.00027962709356899496,1.6191166519667195,0.0028692713297154013,226.99628479450757
1889,Ho3Ru4Ge13,250,3.4409780244060464e-05,2.9809002678767533,0.0012048738010176177,12133.475021941158
1890,Lu3Ru4Ge13,250,3.0868203208873275e-05,2.926869100222058,0.0013214700736111128,16236.705825526711
1887,Y3Ru4Ge13,250,3.62666480818141e-05,3.5305529483925002,0.0009730431403319273,10447.682823455942
1888,Dy3Ru4Ge13,250,3.319865434429208e-05,2.4678555714174704,0.001310079829954544,11733.741867530414
13392,Cu6Fe4Sn12Se32,250,0.00016151044328249542,1.207538256735877,2.832958570619368e-06,0.5245657066853091
13384,Pb0.995Al0.005Se,250,-4.409930781645682e-05,3.7027382285335246,0.06762830330593468,527303.9428495803
1891,Y3Ru3.6Co0.4Ge13,250,4.3524668362323106e-05,3.462331838239094,0.007938070011902497,58032.68496655415
16411,Fe0.05In1.95(Te0.90Se0.10)5,250,0.0001358302774732587,0.3495069778058665,0.044418127981246766,2907.985384169891
16410,In2(Te0.95Se0.05)5,250,0.0003425859039870432,1.6920817333844305,0.0019286048969778687,110.4112669474752
6605,Cu0.95Fe1.05S2,250,-0.00010684232249664185,5.945284837652063,0.0299886084810966,50934.02697662269
13451,GaSb-FeGa1.3,250,0.0003609863746656584,0.5620760319394371,0.19306260827640875,3330.9767953030714
15027,Ag2Se,250,-0.00013270133469606268,1.0922343324046488,0.4654984074455693,125925.70187419331
15028,Ag2Se,250,-0.00011654438686364895,1.301597473960565,0.3764088346599825,149117.82686758033
15901,CsBi4Te5.6Se0.4,250,0.00012483504415214118,1.4659140165811075,0.027066825155659027,10965.480744529248
11147,Re3As6.70In0.30,250,-4.219751009153403e-05,0.3542409008042229,0.00055953038290286,357.15456849379393
16613,Zn12.5Sb10,250,8.434762583402474e-05,1.447016195333794,0.029120902408294225,23400.964916618446
15884,Rb2BaCu8Te10,250,2.4482220767479873e-05,1.5735969888984516,0.0011730615292290664,12318.92127287778
16570,(Zn0.99Ag0.01)4Sb3,250,5.881286371842596e-05,1.4117124405420969,0.047570937489801166,78515.66822827277
16569,(Zn0.99Al0.01)4Sb3,250,0.00010142672388614914,0.6953340049123782,0.162635461722625,44182.06339360915
16568,Zn4Sb3,250,0.00011193644517058295,0.9353363470764686,0.12739608725683432,44468.537170816795
15899,CsBi3.6Sb0.4Te6,250,0.00010702123333175767,1.8805101600484169,0.15519886856412865,104059.54049614305
1359,Co0.92Ni0.08Ge,250,-3.429449082986674e-05,5.2137943463306815,0.0327053294070779,579940.8453393215
1353,CoGe,250,-7.8818559493313e-05,8.926495551328898,0.08108163089030099,466022.05767689977
1354,Co0.96Fe0.04Ge,250,-2.203547466905045e-05,6.041971178957881,0.003837566527464565,191007.1997829361
1355,Co0.88Fe0.12Ge,250,2.2556606308043443e-05,6.526724617468992,0.0032223090732582033,165338.8661679412
1356,Co0.8Fe0.2Ge,250,3.233934818436625e-05,6.644312186964518,0.008238923046590341,209371.68256589954
1357,Co0.7Fe0.3Ge,250,1.6584194303491322e-05,5.355054353675544,0.0026431994268719078,205856.72122597144
9155,PbBi4Te7,250,-4.451985961442848e-05,1.365534039612556,0.04694801052851606,129381.48836277894
9149,PbBi4Te7,250,-6.923785617445508e-05,1.3644975846791665,0.1139753950610848,129764.7230789096
15761,SnTe+1mo3%PrTe,250,2.9755252328762372e-05,29.92041030241117,0.000545891226964641,73791.50634327656
15082,Mo3Sb5.4Te1.6 ,250,3.966611215694293e-05,4.996428974726554,0.011028007338567795,124066.20834940324
13453,GaSb-FeGa1.3,250,0.00013464344917802132,0.35724807995884544,0.03619715883141013,2853.2112066827885
15083,Mo3Sb5.2Te1.8,250,4.945282460587522e-05,5.435151446545005,0.009491589246730705,91320.6388068142
13452,GaSb-FeGa1.3,250,0.00031207619078719214,0.4255715294208093,0.3713735744004568,6491.159526679714
15760,SnTe+2mol%PrTe,250,7.734627290344858e-05,37.00662132690585,0.002624249850528369,64933.05352938635
9151,PbBi8Te13,250,-4.219077059072284e-05,1.3544653836589202,0.04428657225276948,134792.2906711818
15079, Mo3Sb7,250,1.5681977355799788e-05,5.309943242120639,0.005978426606404455,573263.8363145285
9150,PbBi6Te10,250,-4.497696655128912e-05,1.1949366642218573,0.04324872775213708,102187.52764409127
16529,(Zn0.99Fe0.01)4Sb3,250,7.885109134651811e-05,1.1510543092126164,0.027855358708354927,18578.244330749763
16528,(Zn0.995Fe0.005)4Sb3,250,0.00012995597642373655,0.9304553088512808,0.06457021981203524,13826.792046990518
16527,(Zn0.9975Fe0.0025)4Sb3,250,0.00010860818541874596,0.9556619636260868,0.05006796837716799,15697.06030174952
15050,Y1−xB28.5C4,250,-1.9162927513293024e-05,1.0823989435682828,2.1541615664185533e-09,0.02539813986877933
9177,PbBi4Te7,250,-4.4408878607620136e-05,1.7006631631087687,0.03888448375491135,134126.63228101208
9184,PbBi3.94Cd0.06Te7,250,-1.5192777319289578e-05,3.4988490419468983,0.007035337701527054,426575.39385840256
9183,PbBi3.94Cd0.06Te7,250,-3.250817960720693e-05,1.0755128270961214,0.018605427706511826,75740.80954857539
16515,Zn4Sb3,250,9.382633940573112e-05,1.0735885542849617,0.012168653858970755,5935.958500534216
16514,Zn41Sb59,250,0.00022355673536200469,0.17761105626551882,3.693836516472049e-05,0.525088057495396
1858,GeCCo3,250,1.5119253560134371e-05,9.658875980373196,0.002934397458171727,488076.96007238026
1859,SnCCo3,250,5.25101688078199e-05,2.7586562223587525,0.029569717622171962,129888.63347501699
1862,SnCFe3,250,1.2384207085670367e-05,8.499623233136969,0.0033254520329332204,669243.1175984017
1861,AlCCo3,250,1.147130828855976e-05,7.819164431422651,0.0015671687110649394,357632.44036938547
12805,Cu10Cu2Sb4S13,250,6.036642904941301e-05,0.6883283854905815,0.01762653475486192,13317.773985059617