sampleid,composition,Temperature,Seebeck coefficient,Thermal conductivity,ZT,Electrical conductivity
10152,Mn0.95Cr0.05Si1.74,300,0.000107696924794802,2.7601018383285916,0.07903007654080517,62688.75562215126
302,Pb0.997Ga0.003Se1,300,-9.619783617249033e-05,2.9655173729143307,0.21706478581718527,231866.4886940005
15943,Cu5Sn2Te7,300,5.6775766634361985e-06,15.322477587808,0.0007096301443523245,964410.8251593922
435,Pb0.995Ga0.005Se1,300,-5.592637714992865e-05,3.4528020877307557,0.07800865991930662,287051.5352985383
311,Pb0.99Na0.01Se1,300,2.9722915205061626e-05,4.274519862601498,0.01844421405794749,297470.1781886718
10107,MnSi1.73,300,0.00012223508209907363,2.9743417626303814,0.06948047648152661,46104.218553068094
10131,MnSi1.73,300,0.000129772520265909,2.4617861008132014,0.06349586415412979,30939.195789497004
10123,MnSi1.74,300,0.00010109618016064248,2.910620019285615,0.07244900804937991,68774.4630155599
10133,MnSi1.74,300,9.792068694012792e-05,2.7345210999758196,0.05893147949991796,56021.9814587167
17338,Al32Mn34Si34,300,-0.00025893893134244246,8.220306979674277,0.02720242913794141,11116.79933543562
15898,AgPb18SbTe18Se2,300,-0.00016670467306705017,1.2315892565320727,0.4403319173190936,65047.29709543858
10127,Mn0.97Cr0.03Si1.74,300,0.00010410789323129957,3.0958555586726666,0.08384836998081956,79833.78929290747
10087,MnSi1.73,300,0.00013424507057372589,2.5616551036795308,0.07294325851173254,34561.124710174896
10187,FeAl0.05Si2,300,0.0002622549913545813,7.302254769982217,0.0202218725176864,7156.646555364092
10184,(FeSi2)0.745(TiB2)0.255,300,-1.702966951584534e-05,8.175830755154683,0.0013132877232687312,123412.19665292812
299,Pb0.95Ca0.04Na0.01Se1,300,4.325960124407395e-05,2.986987129515971,0.04399013639408009,234046.6241416141
10230,(FeSi2)0.875(TiB2)0.125,300,-0.00011184176145194844,5.991266223562013,0.013756311783925522,21962.98560843285
10089,MnSi1.73,300,0.00011814081469124116,2.0930469935112783,0.4100029595794636,204948.52329133925
1867,Sn0.9Co0.1CCo3,300,1.9207865886918845e-05,6.688932536967318,0.004082556591636969,246722.94773624194
10179,(FeSi2)0.825(TiB2)0.175,300,-6.926648344342782e-05,6.410583746772272,0.007547414229105098,33614.621869878865
10177,(FeSi2)0.85(TiB2)0.15,300,-8.89879684840327e-05,6.278220316655794,0.010784554997438158,28500.66163470242
6881,,300,0.0002258128601785128,1.3099509001680738,0.9208592511909284,73776.76211150485
237,Pb1.002Se1Cl0.004,300,-0.00010425299861739543,2.6973993657084887,0.2789138651646667,230736.86609786004
17257,Bi-92%,300,7.372962856820713e-05,2.836180430537372,0.1909018589833611,332000.4457720039
17255,Bi-78%,300,7.446276871948967e-05,2.1708453975117084,0.01294996872524607,16900.439520603046
10215,(FeSi2)0.95(TiB2)0.05,300,-0.00013733741666917544,5.14138499918389,0.016347460243564687,14853.589356198196
10216,FeSi2,300,-0.00016236905198577166,4.4500922937366845,0.01924365789752435,10827.517171956417
1865,Sn0.95Co0.05CCo3,300,5.6174260468867945e-05,4.823213720887584,0.039525028122026185,172093.75166021186
9822,Pb5Bi18Se32,300,5.1907134660480015e-05,0.7021042930383379,0.0225710501342656,19605.50472913734
9821,Pb5Bi12Se23,300,2.690597967799216e-05,0.8889542075674506,0.007945541751564294,32522.50802781658
17295,CePd2Pt,300,0.00010073652832950556,8.371487618187642,0.29947692436962753,831895.0817337027
310,Pb0.96Ca0.03Na0.01Se1,300,2.943509741568833e-05,3.4973164233144027,0.020531924657955957,276256.4200951664
16101,double-walled carbon nanotube,300,-3.1770013595912566e-05,34.32644341396025,0.0013358036871328573,151953.1822031611
9820,Pb5Bi6Se14,300,2.7933475368946214e-05,1.0907421856758237,0.009033600501131148,42093.185351530185
10256,Hf0.75Zr0.25NiSn0.98Sb0.02 ,300,-0.00010042770949649684,3.520068189996234,0.10394212642779106,123984.92992415545
1859,SnCCo3,300,5.308342572173539e-05,3.0387079628737204,0.03533469233095707,121934.59524488564
10258,Hf0.5Zr0.5NiSn0.98Sb0.02,300,-9.066008581071876e-05,3.7151399855802953,0.11151942070865996,162795.93057754534
6605,Cu0.95Fe1.05S2,300,-0.00012520780711940398,5.612756250801717,0.038596154195764884,46009.09721376064
1858,GeCCo3,300,1.846417383548116e-05,10.493723461087086,0.003863398323731614,427242.17408056156
6604,Cu0.97Fe1.03S2,300,-0.00017624086304613015,6.342614950135478,0.04040933006560896,25595.799831899603
1864,Sn0.95Sb0.05CCo3,300,5.0621350121403856e-05,3.6410282586319753,0.031255724647124394,148035.17417810994
1862,SnCFe3,300,1.4919019486084601e-05,9.719839293161169,0.004156163434607754,606887.4531712915
10249,Hf0.75Zr0.25NiSn0.98Sb0.02,300,-0.00010025022228492892,3.5561646716121103,0.10516466450533936,121744.62097089074
10250,Hf0.75Zr0.25NiSn0.96Sb0.04,300,-7.837778305724784e-05,5.416452063727098,0.1041817662869618,288784.2577149652
10251,Hf0.75Zr0.25NiSn0.94Sb0.06,300,-5.325389701003194e-05,5.958033333726328,0.047050035193785936,358269.2236690017
1861,AlCCo3,300,1.4319000194019488e-05,8.759074241657823,0.00193384412044548,322486.45382053807
1838,MnGe0.02625Si1.72375,300,0.00011910156363973074,2.3456516961054352,0.13843492913976216,76305.00517467687
17165,Zn4Sb3.0,300,0.00011172398256669686,0.8549147213326289,0.12538837845855505,24948.47807398771
17294,CePd2Pt,300,9.961679564855052e-05,7.948901843832322,0.3184192273646577,820098.380135812
17164,Zn4Sb2.9,300,0.00012019336405015781,0.6648314558931776,0.22407240438823334,29076.190853209282
6603,Zn0.03Cu0.97FeS2,300,-0.0002482520040864258,7.163243091170584,0.04378014646205351,16336.612320377728
17292,CePd3,300,9.33863926976374e-05,9.975427816972644,0.2337876253432861,882173.5683148874
17293,CePd2.5Pt0.5,300,9.704055472752838e-05,8.932562666002669,0.2608887343459593,816899.0332902577
10879,Bi0.5 Sb1.5 Te3,300,0.0002351491894943448,1.0392242152365525,0.700676256100909,47912.6856655988
16741,(GeTe)80(Ag1.2Sb0.8Te1.8)20,300,0.0001385838730244275,1.4667224847967455,0.3880344737674084,104751.93825880092
9155,PbBi4Te7,300,-5.349666331417145e-05,1.2805339577269987,0.07976185690335373,118962.94609276588
9149,PbBi4Te7,300,-7.554265195927685e-05,1.28033430225576,0.15971835463394032,119446.2446546725
9150,PbBi6Te10,300,-5.295115131568209e-05,1.1187783858464997,0.07124074754212002,94754.63562358628
16409,In2(Te0.90Se0.10)5,300,0.00027147169837586513,1.4524759201432869,0.0031424629258001717,245.66710799146358
16411,Fe0.05In1.95(Te0.90Se0.10)5,300,0.00015935292060248492,0.3339611444017797,0.05608546067435522,2604.8623308431124
16442, (Zn0.99Cd0.01)4Sb3 ,300,0.00014598449103920432,0.7491407212191449,0.3763324372067768,43465.59422546965
16440, (Zn0.995Cd0.005)4Sb3,300,0.00014108515203348833,0.7644192650876838,0.3858580355018592,48464.337045849854
10978,CoO0.09N0.91,300,-4.7950354682294175e-05,4.452202890313117,0.0025266524554359237,16308.55763879373
1344,Si0.8Ge0.2B0.016 ,300,0.0001551620496067007,2.6160448815487616,0.12397519066497058,44904.27668764746
11089,PbTe 0 GPa,300,0.0003957836230472311,2.385227695088608,0.2112304500897854,10721.349991792098
1347,Si0.8Ge0.2B0.016 (CrSi2)0.091,300,0.00024740497267381297,1.5236464979265882,0.0589017769448005,4887.362036036664
1346,Si0.8Ge0.2B0.016 (CrSi2)0.091,300,0.00022744451683706757,2.947285007521128,0.11001244198618497,20892.564050245277
1345,Si0.8Ge0.2B0.016 (CrSi2)0.091,300,0.0002225818541900079,2.975443443427812,0.12586795892307145,25198.00297423937
9184,PbBi3.94Cd0.06Te7,300,-2.0313789159671015e-05,3.636242567379576,0.012512737356362222,367537.8238152258
9418,Cr0.03Bi2Te3,300,0.00018703454911020616,2.0043851041196605,0.5697505135653245,127347.59059868458
9420,Cr0.03Bi1.97Te3,300,0.00023026292019483365,2.0754221323093587,0.3434150353085012,44880.514461609666
9183,PbBi3.94Cd0.06Te7,300,-3.9630625638457286e-05,1.086768291942475,0.028759399404929088,66333.6140087918
9177,PbBi4Te7,300,-5.3495940127888626e-05,1.6667180793854612,0.06373516636932472,123730.95562483152
16515,Zn4Sb3,300,0.00011043784951289038,0.8456688658908378,0.022352928915914585,5166.27644817193
16514,Zn41Sb59,300,0.0002717058213204624,0.1921897271776741,0.00010552956453176896,0.9157673910285294
16994,(Zn0.99Ge0.01)4Sb3,300,0.00014778945027373234,0.8299056161465329,0.3379404691774203,42801.67688135705
17005,(Zn0.999Gd0.001)4Sb3,300,0.00013247393473649353,0.9453130050256721,0.18689488002404234,33557.601327844284
17007,(Zn0.997Gd0.003)4Sb3,300,0.0001302825269941122,0.8598077736101056,0.2684503720484029,45328.54464214864
17051,(AgSbTe2)15(GeTe)85,300,0.00010686840309280511,1.6274749043221863,0.20637569434694447,112329.47748268141
17050,(AgSbTe2)15(GeTe)85,300,8.242932537104684e-05,1.9862833702141292,0.14861315719103754,167231.55448415273
17035,Zn4Sb3,300,5.395281508327024e-05,1.0399289131864315,0.02063921863731853,24578.05041143336
17036,Zn4Sb3,300,0.00014624658203462137,0.7756052001147792,0.3191118388908075,43504.016729875584
17037,Zn4Sb3,300,0.00015151491619643334,0.8354402285277762,0.3171099017094505,43421.78657919997
12020,Bi85Sb12Nb3,300,-0.00010906115362532708,3.9841970980303913,0.2626017238178058,325107.7115558576
17017,(Zn0.98Ga0.02)4Sb3,300,8.213680101864498e-05,0.979078794759798,0.04483984275856445,24404.803310986343
17013,(Zn0.99In0.01)4Sb3 ,300,8.906157353486806e-05,0.9393744595644462,0.05207231569537783,24183.941757683046
17014,(Zn0.98In0.02)4Sb3,300,0.0001101855114582715,0.9705410857925556,0.067347731813393,20278.857526468
17018,(Zn0.98In0.02)4Sb3,300,0.00010888796479106563,0.9698864371382008,0.0663181334211935,20423.39179386058
17016,(Zn0.98Al0.02)4Sb3,300,0.00010524472018154959,0.979078794759798,0.10069897073738687,32701.46711395285
16341,Ge2.5Sn1.5SbTe5,300,7.787820631134309e-05,1.3814269204017129,0.08361093392550634,63480.13682661863
16850,Bi2Te2.7Se0.3,300,-0.0001341984413496255,1.1005980039421872,0.1308843953111251,30784.11621377705
16339,Ge3.5Sn0.5SbTe5,300,0.00011369388584340984,1.2844941639395089,0.111967847139119,37087.707433630785
16345,Ge0.5Sn3.5SbTe5,300,5.7711726827228256e-05,1.8506821354264256,0.06614591260357316,122513.92458197605
16344,GeSn3SbTe5,300,6.081586717238453e-05,1.4182986168756584,0.06320293680770077,80788.56164186893
16342,Ge2Sn2SbTe5,300,7.280123680073284e-05,1.0873222055049985,0.10261180446328208,70170.86216135877
16343,Ge1.5Sn2.5SbTe5,300,6.827578261900729e-05,1.3440958423214446,0.07619303737020361,73230.31389280257
16826,AgPb18SbTe20,300,-0.0004173629084100474,1.0017003110498202,0.0645305566412449,1236.9560384121962
9615,Mg2Si0.4Sn0.6,300,-0.00012176919843440085,3.309328524709821,0.32790345893614714,243943.77009013738
11976,Bi0.88Sb0.12Ho0.01,300,-0.00010640000552449191,4.2573737345435045,0.2881139415493468,429935.6139306674
16928,Ag6.52Sb6.52Ge36.96Te50.00,300,8.840941112126565e-05,1.545772417158671,0.18712519521340432,135719.82967316598
16929,Ag6.52Sb6.52Ge36.96Te49.00Yb1.00,300,9.780794711917804e-05,1.47788974914646,0.2412923327995589,132308.56967736554
16930,Ag6.52Sb6.52Ge36.96Te49.00Ce1.00,300,9.790010752093662e-05,1.487981993857809,0.23664784226329394,131189.4787664958
10562,"Bi2(Te,Se)3",300,-0.00020138807984181417,0.8070812713239163,1.125136937120331,74633.51137657845
10561,"p-type (Bi,Sb)2Te3",300,0.00022488394089584078,1.2213597628870971,1.072445223903752,86333.74622797582
14771,Bi2Te3,300,-0.00016884763194223296,0.9220517201671228,0.6972236577084956,71662.93979743088
14057,AgPb18SbSe19.73Cl0.27,300,-0.00012039962473183782,1.4278062306715174,0.1669896084510149,56466.27740058098
14056,AgPb18SbSe19.856Cl0.144,300,-0.00011120788758213388,1.4776604778571372,0.13515095311450653,56544.713373559855
4348,Yb0.1Co4Sb12,300,-0.00020133810644063288,4.371482953139602,0.17096284999649386,67038.19609285174
13227,CoSb2,300,-2.491790567125802e-06,9.983366752923232,4.9758286221692906e-05,266684.7059672703
15217,InTe,300,0.0002226794206412717,0.7245177436653033,0.11075647129882887,5152.475823921689
13392,Cu6Fe4Sn12Se32,300,0.00017255404013337533,1.1696579178093478,1.0230657201812926e-05,1.33964855186526
13324,CrSb1.95Te0.05,300,-8.237869143005713e-05,8.586673688918186,0.013468099335180108,67426.92142785787
13319,CrSb2,300,-9.004274796388601e-05,8.578600224185536,0.011860145361367784,47936.043380320945
14035,(Pb0.85Yb0.15Te)0.15(GeTe)0.85,300,4.0973336631571226e-05,4.036229306328644,0.03770495880846501,302169.3314579092
13117,Ca3Al0.95Zn0.05Sb3,300,0.0001443013116911419,1.2053171926507678,0.024497824595246957,4726.79818154256
5309,CoSb3,300,0.00012865281564657308,4.891315159855137,0.2445587005366743,240906.722355253
14124,CuIn0.5Ga0.5Te2,300,0.0001465382635841485,47.67281293816147,0.0023098832438881787,17093.754799084123
13177,Cu2Sn0.5Ge0.5Se3,300,0.00011605935027175586,2.161857571555025,0.04497986521475743,24063.77195580462
13173,Cu2SnSe3,300,0.0001232922271153205,1.2153513286872926,0.041025680670214185,10933.645417934194
14706,CuAgSe,300,-9.768093753885307e-05,1.7649236636578167,0.3337878151495495,205804.80564679575
14122, CuIn0.75Ga0.25Te2 ,300,0.00016197660486126834,50.33615213511426,0.0033920212691127306,21206.51206556044
14121,CuInTe2 ,300,0.00015244895242146056,57.11487988419807,0.0030800762710179717,26098.296220028507
14687,GaPd2,300,-5.714347059604605e-06,19.915709713701773,0.0011501867028983605,2338350.710164949
14688,GaPd2,300,-9.813398616666807e-06,38.842773100446585,0.003447873137889152,4635551.078814669
14689,GaPd2,300,-6.693918432360285e-07,39.244303211830456,1.5911827197950322e-05,4645308.801687272
13662,CuAgSe0.95Te0.05,300,-0.00010294901316845144,1.323157651331884,0.3358061022486164,139930.79617400828
5901,Co3FeSb12,300,6.110799481835001e-05,3.021494545529933,0.030345748403581382,94584.42498979744
14960,Cu0.04TiSe2,300,-7.839813013470472e-05,1.875218908705168,0.07721624710369004,90561.20701983069
4708,Ca0.10Co3.95Ni0.05Sb12.34,300,-0.00013605442928372972,5.580687559333311,0.000912860498344766,917.3720386226387
13745,CuInTe2,300,0.0004249219198443035,4.3896309798939575,0.011742198974296236,951.563823823234
13749,CuInTe2,300,0.00027983094136189133,5.013902319939338,0.0595957023105713,12719.735759081364
13782,Ba3Cu13.88Te12,300,2.6818951588530805e-05,1.2084882483358086,0.003159860134015468,17697.2360606121
14925,Pb0.71Mn0.04Sn0.25Te1.00,300,0.00022828668587810953,0.8413943901244838,0.032566307455427136,1752.6117112701902
14957,TiSe2,300,4.113106943884434e-05,1.800256410800693,0.016206101605528087,64688.293036730574
14959,Cu0.02TiSe2,300,-8.126213465251141e-05,1.9658333005382145,0.08223413638962147,80634.88916112435
4709,Ca0.20Co4Sb12.46,300,-0.00010428787505209552,3.824945014987196,0.031121003891154724,36482.94618952688
4711,Ca0.18Co3.97Ni0.03Sb12.40,300,-0.00011537201500749397,5.151994549822659,0.1255443627603703,186630.27690218165
14931,Tl9BiTe6,300,0.00016991176179625338,0.3552742760246034,0.4855387453554232,17131.284701418754
4706,Ca0.08Co3.98Ni0.02Sb12.15,300,-0.00014250983007536562,5.459143090124731,0.0006459405636611305,578.7701665195755
14924,Pb0.72Mn0.03Sn0.25Te1.00,300,0.00022607441304005321,0.9387111394170748,0.1508183041126085,9233.406291357287
4710,Ca0.15Co3.98Ni0.02Sb11.80,300,-0.00011411609822683242,4.256874790917036,0.0956924823299708,104268.61716907912
4489,Cu3Sb1S4,300,0.0005470156597002074,3.6939428580372335,0.00996200680247369,450.87867340954045
5782,Yb3Co4Ge13,300,-1.8588157480991252e-05,11.635708558103046,0.003882317173669188,465434.7586472989
5785,Yb3Co4Sn13,300,1.810684873843132e-05,13.269698407500597,0.00996379008549318,1244388.5435937804
5783,Yb2CeCo4Ge13,300,-1.0795085652612906e-05,14.312301923728006,0.0016106456465010636,758460.4620005111
13979,Ag2Se,300,0.00014792160416895512,0.8627064881927933,0.8469083498490801,98103.88790192158
13451,GaSb-FeGa1.3,300,0.0003206521227628978,0.3409861943041985,0.3050286854277553,3372.0032573098842
13452,GaSb-FeGa1.3,300,0.00027407112492406233,0.2519503731842603,0.6175623052755465,6904.7501193531225
4830,Yb0.14Co4Sb12.05,300,-0.0001635780578742551,3.3538316614571912,0.3681953166092359,149983.28817605306
15015,(CuInTe2)0.99(2ZnTe)0.01,300,0.00019787592878100363,4.2257039987085925,0.06817686857617884,24526.12485624064
4829,Ba0.23Co4Sb12.22,300,-0.00011983668352475127,4.449631872422616,0.2289814166827572,260992.7455613408
15003,(CuInTe2)0.995(2ZnTe)0.005,300,0.00022570234397022387,4.2586818833160685,0.057859482099797674,16123.389617723997
15050,Y1−xB28.5C4,300,-1.859072017874677e-05,1.175622099284372,2.651217070436052e-09,0.03006071774825753
4835,Yb0.6Co4Sb12,300,-8.811980281230402e-05,3.2929820752532386,0.2047635338734593,289450.0939264939
4834,Ba0.19Eu0.23Co4Sb12.03,300,-8.318939452085647e-05,4.382346958666278,0.1872192035887256,455892.053469839
4838,Yb0.6Co4Sb12,300,-9.132932523407336e-05,3.166554296156975,0.18474513480934135,233785.83654562532
2305,Ba8Ga16.4Ge27.9,300,9.01863284669662e-05,1.157201137918375,0.1092054398679048,51790.54198946497
12816,Cu2ZnSn0.90In0.10Se4,300,9.0696623280475e-05,3.121357540536688,0.019675837511172304,24887.04051022904
2306,Ba8Ga16.6Ge28.7,300,6.33861716452179e-05,1.7716948191003916,0.05387202644184797,81859.19242285966
12814,Cu2ZnSnSe4,300,0.000139958938422877,2.9866333709316137,0.008162556844486283,4148.447495994748
2307,Ba8Ga16.6Ge29.8,300,5.59568719527984e-05,1.9657784824047968,0.05690566301857025,121019.22711921165
15760,SnTe+2mol%PrTe,300,8.333654911911729e-05,31.99192827992139,0.003349481839430735,51431.09426559296
6324,Yb16Sb11,300,1.38593891866172e-05,1.1297211763968191,0.0051947551297769606,101841.99886921245
14248,Ni0.06Mo3Sb5.4Te1.6,300,6.66944168474105e-05,5.886530942628269,0.0411591048163119,181562.07518340574
6322,Ca16Bi11,300,3.6770171634712364e-06,1.5305957630671732,7.81411099984075e-05,29486.79117054193
14250,TlGdTe2,300,7.594888052077435e-05,0.4889984181176645,0.18350278777451864,51968.89365419937
15761,SnTe+1mo3%PrTe,300,3.563404972960371e-05,24.84132083512272,0.0009208950365996015,60052.791218850296
2052,Fe0.92Mn0.08Si1.9,300,0.00020919454894579743,11.031489578623187,0.0006892414568138061,579.1400089114322
2289,Ba24Ge100,300,-2.090963319377504e-05,2.839434634538713,0.008720559798707313,203697.32592555328
5160,Co4Sb11.625Te0.375,300,-0.00014145863252158615,1.859125585267012,0.2826179340085687,87524.22609465508
14545,BiSbSTe2,300,-0.00016008069651197814,1.5366081788060637,0.05706919615155801,9369.946716562064
14313,PbSe,300,0.00037063085402146736,1.5182558675510656,0.10085836597366436,3715.801456283172
15759,SnTe+1mol%PrTe,300,0.00014577150006556635,40.030407506291645,0.006690070675110462,42010.14846972504
2291,Ba24Cu4Ge96,300,-2.198651340831985e-05,2.530099799878248,0.008376699057919157,149290.0561649364
12926,MgNiSb,300,2.4735750690175145e-06,23.17764369173636,0.00021087740343338817,2662734.607399149
13005,Zr3Ni2.9Co0.1Sb4,300,0.00011918774473435406,2.308602001101316,0.1666929665386374,72702.17405733452
12970,CrSb2,300,-8.400227130819774e-05,7.487757665508893,0.01193565264147154,43322.519568943215
12973,Cr0.9Ti0.1Sb2,300,-6.545860789868847e-05,7.871265527895367,0.010422988542359202,75503.22443739905
12972,Cr0.95Ti0.05Sb2,300,-7.402247484260491e-05,7.456002379247223,0.01183229048001731,57235.95654474918
14620,Ba0.51Cr5Se8,300,0.00014811322029000196,0.84849229844678,1.9853749772046725e-07,0.025596556569966882
12971,Cr0.97Ti0.03Sb2,300,-8.710794742502536e-05,7.368431080075616,0.012584056417598345,46672.95586222998
14576,CuGa3Te5,300,0.00028200959052692245,0.7978666485215211,1.051174147428883e-06,0.03515248019545075
14247,Mo3Sb5.4Te1.6,300,4.853207252164053e-05,4.63579524714385,0.02647941975637133,173721.58357196092
16814,Ag0.366Sb0.558Te,350,0.0003845889790223353,0.5307253502103114,0.37334787086855376,3726.84648445341
16819,(Ag0.366Sb0.558Te)0.92 (GeTe)0.08,350,0.00013624668646215917,0.971451859946964,0.07768179225385753,12412.781103772273
16818,(Ag0.366Sb0.558Te)0.96 (GeTe)0.04,350,0.00017979382313464132,0.7810708231199759,0.16913276544500522,11836.02869586219
13815,CuCr0.25In0.75Se2,350,9.80447141432239e-05,1.0790810573842289,0.10867591916086827,31873.494615086034
16815,(Ag0.366Sb0.558Te)0.99 (GeTe)0.01,350,0.00022657854309162623,0.5713608177644925,0.2261325181333476,7354.752986129742
16817,(Ag0.366Sb0.558Te)0.98 (GeTe)0.02,350,0.0002191812674989074,0.6428784556621968,0.2408135799229889,9318.39794081568