sampleid,composition,Temperature,Seebeck coefficient,Thermal conductivity,ZT,Electrical conductivity
10542,Ca0.96Dy0.02Yb0.02MnO3,450,-0.00014143812739288904,1.9880410569331557,0.0929899193034339,20306.950520412982
10255,HfNiSn0.98Sb0.02,450,-0.00010189886089071788,5.073635897159544,0.12604899889822993,128550.99433402107
10356,Ag9TlTe5,450,0.00032235077761362383,0.23736302780020854,0.3292352250455056,1340.154803609462
10158,MnSi1.729534Ge0.003466,450,0.00015222419218847522,2.1335655973941305,0.13935218525811488,28512.80300868785
10202,FeAl0.05Si2,450,0.00022823910358639267,7.866856386965544,0.05628035075291079,18887.105130432934
11066,Cross Reference for comparison,450,-1.675355636379498e-05,11.132340395309837,0.006409232272201061,632095.654108175
9689,In0.05SnBi1.95Te4,450,7.980038554587036e-05,1.0406815851386095,0.17795862807708654,75357.563281351
9612,Mg2Si0.4Sn0.6,450,-0.00017374116203692304,2.7429883951207183,0.6019888451787828,111277.04132669509
10235,Fe0.90Cr0.10Si2,450,0.0003006186427597121,13.504384953830645,0.014922746850874288,4955.406063288343
9611,Mg2Si0.4Sn0.6,450,-0.00018617503876491731,2.94616134681425,0.6075610599312409,106191.10227230113
8215,Bi2Sr2Co1.7Ox,450,0.00010839504953467083,0.9875105166074928,0.004955780132390283,1045.6673963123676
10562,"Bi2(Te,Se)3",450,-0.00017773565380197598,1.0163231458899662,0.6882650476295944,49206.88866710039
9429,,450,-9.924007451622276e-05,0.6046801246496638,0.3957389433041557,50287.382844886204
10563,"Bi2(Te,Se)3+Al2O3",450,-0.0001539014607545959,1.0018117431502145,0.5567405544784193,52328.82439381213
9608,Mg2Si0.6Sn0.4,450,-0.00013053534573624924,3.1226044592471314,0.3977146228383451,151224.90312037375
10159,MnSl1.719136Ge0.013864,450,0.00015003767448782041,2.0918308849668352,0.15755722382645246,32535.068739978433
10146,MnSi1.73,450,0.0001663787175149931,2.403082038971498,0.13690535520969355,26410.764664560837
10608,Zn0.99Al0.01O,450,-4.204333335700488e-05,22.01710670689199,0.0024851930108752765,66860.09986589072
10185,Fe0.85Cr0.15Si2,450,0.00025677731961931303,13.800411714635565,0.012684996540430793,5900.061793208403
9690,In0.07SnBi1.93Te4,450,9.303567017704706e-05,1.1361741176652729,0.12640062563962826,35126.83242090329
9609,Mg2Si0.6Sn0.4,450,-0.00011537348939232505,4.430266810672026,0.24928410788099706,184374.0966745813
10148,Zr3Mn4Si6,450,1.531376939544275e-05,16.884704888133246,0.0010201523798916146,163223.16763354882
10186,Fe0.99Co0.01Si2,450,-0.00030742244076062864,10.650591994989963,0.024492006845129203,6133.586208642806
7905,La2Ca0.1S3,450,-5.322522068883068e-05,1.2628073606853514,0.06436542446318784,63759.11595862048
10203,(Fe0.95Cr0.05Si2)0.995u0.005,450,0.0002971210121259733,11.024003749737101,0.014342385184148806,3979.985490472925
11065,Al2CrCoFeNi + 0.3 wt.% Sc,450,-1.683209879604859e-05,12.100957800649507,0.008720628655542566,715834.235267586
10199,FeAl0.10Si2,450,0.00018771250498019084,10.072848506551304,0.04194827112778144,26648.173316548044
10150,MnSi1.73Cr0.03,450,0.0001531628108811282,2.581879902519281,0.08581937607524498,20989.5061257204
10252,Hf0.75Zr0.25NiSn0.98Sb0.02,450,-0.00011160551537926022,4.8884561987350255,0.2122139127224769,163565.5764588719
9615,Mg2Si0.4Sn0.6,450,-0.00015227459310837677,3.1704075351460754,0.564723162556457,162301.91502058864
10189,Fe0.94Co0.06Si2.00,450,-0.00017307392946256045,3.2416389788069804,0.07464973955103063,16612.230310238792
9614,Mg2Si0.4Sn0.6,450,-0.0001576895011240083,3.3000973515623158,0.546965637119631,150092.39181559018
10151,TiMnSi2,450,1.4418904304462204e-05,7.3400163998929715,0.0007155944226140032,56141.879079846774
10198,(FeSi2)0.7(TiB2)0.3,450,-2.1027838479202404e-05,9.409043069270174,0.002810669371134566,132908.7088090248
10100,MnAl0.0063Ge0.018Si1.7757,450,0.0001543345134259389,2.579108534815796,0.1922516604773048,46259.51660158079
9613,Mg2Si0.4Sn0.6,450,-0.00017185223247859,2.717497175884064,0.5492384919071961,106732.6932978274
10253,Hf0.75Zr0.25NiSn0.96Sb0.04,450,-9.395555828993744e-05,6.537085016413612,0.21833246655722047,361495.0753793324
10187,FeAl0.05Si2,450,0.0002649256161255619,6.535000505306552,0.033007490190705584,6829.6383731413125
8382,Mg2Si,450,-0.0005613293767635871,7.0247137865197695,0.023834324640287098,1073.7028055365531
9688,In0.03SnBi1.97Te4,450,9.568943679317121e-05,0.9766599493045968,0.1891222771624292,41070.00081972213
10254,Hf0.75Zr0.25NiSn0.94Sb0.06,450,-6.0161790050828506e-05,8.085776030284404,0.10769180192328023,481307.6254151309
10201,Fe0.98Co0.02Si2,450,-0.00029571001286462747,3.9761442489460816,0.03686188223001216,3724.732297434425
10689,In4Se2.5,450,-0.00025350463804395235,1.0071316753672859,0.19298359931507192,6892.1295038504195
10087,MnSi1.73,450,0.00015956099477918966,2.578841228503981,0.13403151339954011,30169.3214146898
9482,(CoGe2)0.15(GeTe)12Sb2Te3,450,0.00019837638443579342,1.443012671032735,0.4644728435524917,37947.973720474685
10200,(FeSi2)0.995Cu0.005,450,-0.0004922167491229437,14.01300885074367,0.0006629660694256189,85.21134272769768
10115,MnSi1.73,450,0.00015647585687569274,2.5922086227449683,0.2130341007589765,45559.68640587703
10262,Hf0.5Zr0.5NiSn0.98Sb0.02,450,-0.0001163229210143888,4.332291013949935,0.28719268550974625,190280.89634823587
8184,FeSi1.9,450,0.0001841155199325831,6.365038381328647,0.007289448006119983,3041.6018117852745
10483,MnSi1.73,450,0.00014529762213571292,3.715104692008179,0.12568660057602424,49150.790744776095
10975,Nb0.99Ti0.01CoSn0.94Sb0.06,450,-0.00011777440486694478,5.682196391730049,0.12943751087214,111098.3784252229
12420,Nb0.99Ti0.01CoSn0.94Sb0.06,450,-0.00011755492961414028,5.646102504961072,0.12923344205312695,110021.66665112274
9487,(CoGe2)0.2(GeTe)17Sb2Te3,450,0.00019585695708246773,1.423218236301984,0.8041661904283304,61218.140715294714
10261,Hf0.6Zr0.4NiSn0.98Sb0.02,450,-0.0001240949125053072,4.552118275647384,0.3286940978893825,207775.6363883552
10226,,450,-0.00016533379835518872,3.529502490354086,0.06272745827478632,17113.662563678612
10131,MnSi1.73,450,0.00015323753462801002,2.4213728598691437,0.11620399000703358,26628.081926177856
10178,Fe0.98Co0.02Si2,450,-0.0002779754837008839,4.907785039740787,0.028196921351585424,3979.804350249762
10114,MnSi1.7321335Ge0.0008665,450,0.00015133990642175006,2.285963396436083,0.12344041625235565,27378.34637483009
10979,ZrCoSb,450,-0.00020920496758870263,12.685646891631167,0.0016284036049052115,1040.3923446302563
12288,Zr0.7Ti0.3NiSn ,450,-0.0002299069446245797,6.99174535449038,0.12692250916102765,32203.208763773397
12416,NbCoSn0.9Sb0.1,450,-9.653117247228549e-05,6.236919313784185,0.12852648828869673,186050.2544840322
10126,MnSi1.733,450,0.00016198605961729762,2.2283304296497706,0.22110622666401,41726.57784266418
10982,ZrCoSn0.15Sb0.85,450,0.00016014720097977164,7.835105500111299,0.14834397406679714,99089.69715258178
10810,La22.3Bi35.3Te37.2Fe5.2,450,-3.287599430735104e-05,0.4772608851828583,0.0035985935123033627,3531.167576714691
10971,NbCoSn0.9Sb0.1,450,-9.638242231901328e-05,6.359033648426063,0.12724593156941294,187728.6265301449
10109,MnSi1.69834Ge0.03466,450,0.00015207743942971235,2.380290787735481,0.1563877161096438,35767.6622676766
10124,MnSi1.73Al0.005,450,0.0001666073865043851,2.7875289654857287,0.16585468444724785,37012.303418504845
10686,In4Se2.95,450,-0.0004504478416653285,0.679847013590928,0.16278928912435808,1002.6982389037584
10120,MnAl0.0063Ge0.0054Si1.7883,450,0.0001599440385064651,2.5203429123560688,0.19643927247573476,43007.017152770175
10263,Hf0.6Zr0.4NiSn0.98Sb0.02,450,-0.00012439361410719434,4.4595023581221325,0.3427940986312362,207030.54385100532
10966,NbCoSn,450,-9.791871665083397e-05,6.716552530168027,0.03284920130155206,41774.47739019095
10168,Fe0.95Co0.05Si2,450,-0.00022437469576873007,7.1885218396077635,0.03704663371539387,11755.147423587076
10688,In4Se2.8,450,-0.0003026470271581237,0.928182472680217,0.14103883876122453,2965.761279192089
1447,Bi0.4Sb1.6Te3,450,0.00021708725026821997,1.1431088426258924,0.7917807283086905,41579.48252843841
12034,Hf0.25Zr0.25Ti0.5NiSn0.998Sb0.002 ,450,-0.00020173971980700945,2.3881997397004957,0.4814623382083924,59842.238885788574
9425,(Mg2Si0.995Sb0.005)0.4(Mg2Sn)0.6,450,-0.00014013231788817998,2.387587069422664,0.6533937217894217,143717.69346281755
12415,NbCoSn0.92Sb0.08,450,-9.37681481626097e-05,6.663279267899588,0.1049659312580043,168559.59142563865
9278,Sn0.99Ag0.01Se,450,0.00035033693326325994,1.4104732842562044,0.12554994963731098,3362.105367400909
10110,MnAl0.0063Ge0.045Si1.7487,450,0.00014204146829995565,2.4533375970675038,0.17717424446867855,47875.69417194741
10485,In0.19Al0.81N,450,-0.0001287551836658429,3.6844724086525313,0.013926095748984115,6274.165990258946
9605,Mg2Si0.6Sn0.4,450,-0.0001463082574555206,4.120738185658065,0.3691470939054328,147238.94102701644
12286,ZrNiSn,450,-0.00029710170262558887,10.97870082444202,0.0820263939024855,19071.928363546976
10122,MnSI1.75,450,0.00015766642451846922,2.267080408188129,0.2831994496754339,57394.248942364015
9276,Sn0.97Na0.03Se,450,0.00020889833772670872,1.2614127635792851,0.8169670725029637,56634.056004110156
10973,Nb0.99Ti0.01CoSn0.98Sb0.02,450,-0.0001421288922045921,6.202127306639595,0.09574958245418012,60477.26662309797
10129,MnAl0.0027Si1.7973,450,0.00016402203699167833,2.5229595575448327,0.1889395778431154,39374.6143896649
8187,FeSi2.3,450,0.0002441126644431286,9.33495139302948,0.005775323244546394,2010.4590049102808
12419,Nb0.99Ti0.01CoSn0.96Sb0.04,450,-0.00012766341910308413,6.590124145161813,0.10134941799594482,89177.17516576318
12418,Nb0.99Ti0.01CoSn0.98Sb0.02,450,-0.0001420461301545609,6.110459908138004,0.09542261847649043,60160.61196317233
10127,Mn0.97Cr0.03Si1.74,450,0.00013580806818291397,2.587380293133493,0.20771454922915428,64753.541603705075
10219,Fe0.95Cr0.05Si1.946Ge0.054,450,0.00020628214972972963,7.993140906726764,0.01704257939123258,7114.051153466915
10177,(FeSi2)0.85(TiB2)0.15,450,-0.00010654718999080134,6.332834917301091,0.026002446615184863,32234.123533173584
10980,ZrCoSn0.05Sb0.95,450,0.000189826632757246,9.258824453411009,0.0828307533981907,48286.12961913807
6607,LaOBiSSe,450,-0.00011277636809301898,1.413193030782837,0.18248942370307292,44600.512272053886
10229,Fe0.95Co0.05Si2,450,-0.00017875084792258954,3.2605081890623318,0.04898862440769526,11108.919125523478
9460,PbBi2S4,450,-0.00018226422380650484,0.5923592261704855,0.18928093762021214,7640.028530038745
9489,(GeTe)17Sb2Te3,450,0.0001886944809192134,1.422967239757737,0.7484168734503406,64602.83416975265
10974,Nb0.99Ti0.01CoSn0.96Sb0.04,450,-0.00012843090259863935,6.613730438210138,0.10173012247941572,90057.39680287057
12417,Nb0.99Ti0.01CoSn,450,-0.0001332072905753936,5.61995916754387,0.04083667916527682,26119.89656581649
10216,FeSi2,450,-0.00018282796156284008,4.482221339533253,0.04254126589721037,12676.6926219801
12424,TiCoSn0.1Sb0.9,450,0.0002608068957500494,7.521171231520693,0.07518183294693571,19092.38511168459
9604,Mg2Si0.6Sn0.4,450,-0.00014011338735491714,3.614383294792332,0.3916856051089616,148050.6561527365
8185,FeSi2.0,450,0.00027906880531108815,7.237821815741977,0.012317556874436643,2543.8843488216035
10894,Fe2VTa0.03Al0.97,450,-0.00010837245048494554,14.298286302939301,0.104900474958963,228541.91437613827
10217,Fe0.98Co0.02Si2,450,-0.0002717863587850648,4.18264668666753,0.04586551741831591,5771.246891178411
9275,Sn0.98Na0.02Se,450,0.00021865622246721478,1.4200843119008149,0.5423406980993283,38157.12373370712
12292,Zr0.5Ti0.5NiSn,450,-0.0001802850602521646,5.030746913059623,0.16727120051177244,59845.392097313976
9606,Mg2Si0.6Sn0.4,450,-0.00013282979138396148,3.121656147918838,0.4058949143674437,149248.32103410966
10981,ZrCoSn0.1b0.9,450,0.00019531626189361783,8.34048598582022,0.14325129588420632,69387.97747337143
10972,Nb0.99Ti0.01CoSn,450,-0.00013253555573060878,5.678895981103728,0.040928520907141316,25355.216275335682
10171,Fe0.94Co0.06Si2.00,450,-0.00015718662327151193,3.8299166808838057,0.06401472410144607,20397.257250799503
10385,PtYSb,450,0.0001806076840446696,3.0393004183405354,0.16997090814834492,34521.92571018783
10976,Nb0.99Ti0.01CoSn0.92Sb0.08,450,-0.0001050578049746408,6.38712859008135,0.13120747126436785,160528.2589689508
11293,[BS]:[BT] = 1:4,450,-0.0001903735072558985,0.5924202643555283,0.6850930308780497,24506.8562198237
9607,Mg2Si0.6Sn0.4,450,-0.00013348658256153215,3.24276097854556,0.3948897828587075,150544.93309886256
12421,Nb0.99Ti0.01CoSn0.92Sb0.08,450,-0.0001044463981427837,6.342587079156113,0.130742881146772,160964.4811683597
8188,FeSi2.5,450,0.0002766437373512891,11.816463886964906,0.0061723788480980936,2117.804692909971
10484,MnSi1.73,450,0.00015241579391224764,2.014219457737815,0.2608013169642924,50250.930514047424
10169,Fe0.94Co0.06Si2.00,450,-0.00016044668827433118,3.7566192452469513,0.06393446094294587,18987.98713217232
10116,MnSi1.733,450,0.00016140562871904752,2.4005330937424243,0.17561392814013102,35959.760399937535
9424,(Mg2Si0.9975Sb0.0025)0.4(Mg2Sn)0.6,450,-0.0002761785149165413,1.4274892514975577,0.3777362765885433,14941.714184075408
12413,NbCoSn0.96Sb0.04,450,-0.0001029253421592196,7.290901351427928,0.07598323739131715,120611.7408320848
10118,Mn0.85Cr0.1Ru0.05Si1.74,450,0.0001357884875074104,2.457061327947351,0.13964028656465666,41351.21858171272
9280,Sn0.97Ag0.03Se,450,0.00028669140086042547,1.368067188447352,0.3112551916052483,13087.092115001868
1446,Bi0.4Sb1.6Te3,450,0.00022912226497327182,0.8677486775822415,0.84792589759104,30593.008939811334
10094,MnSi1.75,450,0.00015555928830247707,2.304845677093206,0.21764183489617386,46065.9277362171
12412,NbCoSn0.98Sb0.02,450,-0.00011337844904832237,6.988300984900403,0.09542261847649043,104251.31376089038
10279,Si0.8Ge0.2,450,0.0001316181268816926,2.5972326602358238,0.15751811535108384,49589.26636651924
10228,Fe0.95Cr0.05Si2,450,0.00033057995533924983,10.925466916217859,0.016122946189615038,3581.9445928283226
11294,Bi2Se3,450,-6.241604337619338e-05,0.5741181567918824,0.062395865041895884,19858.863796833622
12427,TiCoSn0.1Sb0.9,450,0.0001937176420812817,8.275425040087683,0.14675540346412927,69534.55925960102
10687,In4Se2.9,450,-0.0004217820951274036,0.8631384517084588,0.11919820020509253,1036.244653464079
10108,MnSi1.73Cr0.005,450,0.00016143289580809029,2.2184970527478685,0.15645738692697286,29597.725657293508
10969,NbCoSn0.94Sb0.06,450,-0.00010274054039132206,6.524936975032609,0.11808538653196032,161098.1288072418
9459,PbBi2S4,450,-0.00020193212132875118,0.5924809196085812,0.1833569807171708,5952.75036185282
10967,NbCoSn0.98Sb0.02,450,-0.00011343460223991782,7.163438284076258,0.09153936159956984,100446.54390604427
10113,MnSi1.75,450,0.0001793044638350039,2.7309781390071315,0.22299300375493192,42093.47153220469
12290,Zr0.5Ti0.5NiSn,450,-0.00018978827792650042,5.449185687474245,0.1351698243872047,45506.01694036403
12043,Zr0.98La0.02NiSn0.98Sb0.02,450,-0.00012578118687209134,7.703191385365401,0.31378608744890124,311425.68134172604
12289,Zr0.7Ti0.3NiSn,450,-0.00023848798717393717,6.1587441123109015,0.2279331500947246,49087.701986530774
10133,MnSi1.74,450,0.00012653785927417544,2.6462064404703844,0.12312274804881508,45217.70775741417
10970,NbCoSn0.92Sb0.08,450,-9.452357397214853e-05,6.843172609322817,0.10515158357314837,166771.8125689608
10977,Nb0.99Ti0.01CoSn0.9Sb0.1,450,-9.746703096792684e-05,5.992888069382593,0.13967361633710862,209045.90973468023
11011,Fe3Si,450,-1.218044357518438e-05,20.643343377632476,0.004233458591318526,1194007.809020327
10215,(FeSi2)0.95(TiB2)0.05,450,-0.0001596028025582104,5.155036083124359,0.0391518322351695,17607.198507106637
12414,NbCoSn0.94Sb0.06,450,-0.00010261662449225624,6.4898781200507925,0.11876960735565847,161041.64638266966
6770,PbS-ZnS,450,2.5104039057865424e-05,1.369143594929067,2.203685147733773e-09,0.010638951426082656
11955,NbCoSn,450,-0.00014837785524974938,8.20943452618387,0.07125509969098877,67213.64127930242
9279,Sn0.98Ag0.02Se,450,0.0002920526143445251,1.4460745263397905,0.17691525455019386,7733.840071713753
10091,Mn0.75r0.15Ru0.1Si1.74,450,0.0001306696557945392,2.4496078470719302,0.12071174365625953,38484.34327724031
10968,NbCoSn0.96Sb0.04,450,-0.00010298760034418126,7.321601524192537,0.08212425952838802,122191.38907029654
10179,(FeSi2)0.825(TiB2)0.175,450,-8.609511620114126e-05,6.476417621314478,0.0191799943818218,37240.35176176298
11292,[BS]:[BT] = 1:9,450,-0.00018001122742121583,0.6283928905509972,0.6404280176575784,27027.84336309752
12422,Nb0.99Ti0.01CoSn0.9Sb0.1,450,-9.667185793686513e-05,5.930411473438388,0.1390136973255181,211019.03879090922
10223,Fe0.9Fe0.95Co0.05Si1.958Ge0.0425Cr0.05Si1.946Ge0.054,450,-0.00015152292720735456,4.6975071310322285,0.03873728063169835,17612.757709366946
10227,FeAl0.10Si2,450,0.00022996872556397882,6.44946097950766,0.040925038731874086,11090.789126098247
6606,LaOBiSSe,450,-0.00012477799839824924,0.9268223477362632,0.2104967705855546,27172.111386779678
9274,Sn0.99Na0.01Se,450,0.0002629480025967921,1.3950051117734814,0.4934168575552506,24784.354881587
8186,FeSi2.1,450,0.0002556783277232945,7.887244344971979,0.007385826924226677,1980.2684750325648
12426,TiCoSn0.05Sb0.95,450,0.00018788195089407882,9.109514999459787,0.08734921101238208,49000.664196071106
10895,Fe2VTa0.05Al0.95,450,-0.00012129024282510957,12.715582586629882,0.1833102919552627,348638.8309319555
10093,MnSi1.73,450,0.00015715802428015508,2.659995933700841,0.1981991086337581,43567.41518131788
13031,Yb0.75Eu0.25Cd2Sb2,500,0.00020821980097910945,1.2407459160080825,0.6080404952858002,32249.021877583917
10186,Fe0.99Co0.01Si2,500,-0.00030356172102074,10.472293566152773,0.0284219018087288,6459.976316677918
16942,AgPb20SbTe20+1vol.%SiC,500,-0.00030381534875516296,0.7795253305942313,0.6440899181918527,11412.907655237463
13032,Yb0.5Eu0.5Cd2Sb2,500,0.00022158668429435245,1.1599572967362357,0.5085751491110377,21905.725605414023
9275,Sn0.98Na0.02Se,500,0.00022902714384453828,1.2577080069213475,0.6545355055609721,33034.66122904823
9274,Sn0.99Na0.01Se,500,0.000275677840264368,1.2462860433508958,0.5698674169400073,21219.70600447569
10087,MnSi1.73,500,0.0001679996361810109,2.5845699367787978,0.1580327526980119,28943.344012965954
16535,Zn3.96Cd0.04Sb3,500,0.00016997731154946914,0.7063731534872353,0.8227763922172617,39002.94914546995
8382,Mg2Si,500,-0.0005202394389236492,6.57906267406741,0.027550909728706947,1178.9105747554013
13035,Mo2.78Ru0.22Sb7,500,3.941947731349928e-05,5.444678277204672,0.05684553195469935,406549.1248273357
16871,Zn4Sb3,500,0.0001337843254705153,0.8057903836019964,0.6732094687384623,51385.26701961295
14016,Tl8.83Gd1.17(5)Te6,500,7.292941144045899e-05,0.8406276663037532,0.05726838045267809,16818.02760346061
16522,Zn0.98Sb,500,0.0002878655136046012,1.3190470741108091,0.25980833321506835,6919.720861039412
13036,Mo2.5Ru0.5Sb7,500,5.009376994632947e-05,5.163115626417944,0.09197007781091696,350995.540512831
10187,FeAl0.05Si2,500,0.00026581582438255547,6.279249083747997,0.03781240558414122,6720.63564573372
9460,PbBi2S4,500,-0.00019910351182691915,0.5830444345326149,0.22097875785815266,6819.7916148299255
538,Ba24Ga4Ag0Ge96,500,-3.706179253400481e-05,3.040415246994417,0.039051910234353684,180782.71956925423
14015,Tl9.32Gd0.68(8)Te6,500,6.268188430771587e-05,0.9683041836808588,0.10223559908691164,48302.578924803376
13034,Mo3Sb7,500,3.120436323103702e-05,5.989288687941769,0.039381107057704735,460921.29940590955
13927,PbSeTl0.02,500,0.00012890405043038635,0.936088600506958,0.4698772571044874,43302.1796660288
13914,PbSeGa0.003,500,-0.00010218462308645535,2.185206272821317,0.3502758445135955,163325.07648971785
9279,Sn0.98Ag0.02Se,500,0.0003052700064315625,1.2886751819259956,0.2333764664434532,6814.922724064692
16537,Zn4.06Cd0.04Sb3,500,0.0001472018173404449,0.7857067792648005,0.6927365392899298,49809.34498685025
5923,Yb0.2Co4Sb12,500,-0.00021090328950771627,2.5553967105854336,0.2983672763294554,29905.593239154037
16834,AgPb17SnSbTe20,500,-0.0002318659926930543,1.1257498485643793,0.4563260953890192,19734.5283670394
16096,HT C/C composites,500,2.011262249615171e-05,32.09119040915193,0.00032541905258723087,44480.90585627408