sampleid,composition,Temperature,Seebeck coefficient,Thermal conductivity,ZT,Electrical conductivity
15934,Ni0.05Mo3Sb5.4Te1.6,400,8.06089624708257e-05,4.540598837645587,0.09440995091091896,159534.41912325757
15935, Ni0.05Mo3Sb5.4Te1.6/0.0100Al2O3,400,6.76130456987023e-05,4.139594935514158,0.06290149493522856,141285.8390040202
15936,Al2O3,400,7.02767248907553e-05,4.118879570407906,0.0713559652551945,142259.7295172251
12991,Cu3SbSe4,400,0.0003843473913371756,2.3001312197361097,0.1927255923719855,6732.980679814013
13062,Cu1.7Bi4.6915In0.0085Se8,400,-0.00012829819772638967,0.5484266716966011,0.10171344470945247,7624.510333109784
15903,BaCu5.7Se0.6Te6.4,400,0.00011780456784808776,0.4847517410026786,0.0509957129119169,3804.984094594044
10653,LaCo0.90Ni0.10O3,400,0.0001390686617524032,1.8511721773117351,0.026947146899513358,6915.931344441764
12990,Cu3SbSe4,400,0.0003695534989112848,2.5128787288461853,0.1325680156767079,5011.4106513588185
1904,CrSi2,400,0.00012925178431284542,8.979268062586478,0.08106073909207656,108922.70306749539
12989,Cu3SbSe4,400,0.00031348570120928005,1.908019053817304,0.07519855084280748,3090.074955734681
1873,CoSi0.98Ge0.02,400,-8.715424931127433e-05,11.83175199980815,0.14209001728939608,553318.8947471522
1872,CoSi0.995B0.005,400,-8.745634568620919e-05,13.240319094062214,0.14737797678517972,637805.701813514
1871,CoSi,400,-8.202650419087089e-05,12.52230288051112,0.11123648214251554,517562.79813523975
1870,Al27.5Mn27.5Ta2.5Fe3Si39.5,400,-9.52300517970146e-05,2.8475115864264064,0.08975809430813696,70458.12646489154
1869,Al27.5Mn29W3Si39.5,400,-0.00012583626934217188,2.3582636344212915,0.1618360618724511,60255.40305034363
1868,Al27.5Mn31Cr2Si39.5,400,-0.00011561554180464922,4.310899643285845,0.07528443657147821,60698.881498368886
12195,Bi0.5Sb1.5Te3,400,0.00021576701439993316,1.2368483324086266,0.7120076907169434,43517.19517716048
1839,MnGe0.035Si1.715,400,0.00013852967308004304,2.4019629006485275,0.2107498331515157,65945.9189913132
16063,CuTl9Te5,400,0.00013785056064424808,0.4566673207532667,0.096457040006673,4757.762255863371
12950,Cu2CdSnSe4,400,0.00016974987770548188,0.9508529974510438,0.01544415752706832,1510.6463302282025
16060,Ag1.1Pb16Sb0.8Te23,400,0.00033688690182630314,1.0402634124560777,0.1637965210183822,3741.871434483714
16056,Ag0.7Pb18Sb0.8Te20,400,-0.00033496450312139707,0.8709031472997366,0.204493148935432,4575.8491008097335
12278,ZrCoSb,400,-0.0001817450701153771,17.340035669360454,0.0015545125590636524,1738.9477921279993
10523,La0.1Sr0.83Yb0.07TiO3,400,-0.0001145605781327862,5.676678797530791,0.01213408101715599,12381.751882302902
1881,CrSi2,400,0.00010831093243185949,6.8290708083260165,0.07371696983257735,107281.41925319104
10522,La0.1Sr0.85Yb0.05TiO3,400,-0.0001138350732902424,5.787358651282821,0.024249612355089475,24896.53909405853
15883,In4Te3,400,0.00039356901019098534,0.6904352223448185,0.025196596845587872,268.11299714238015
7903,La2.76S4,400,-3.82275852247176e-05,1.1111150046973066,0.03638738727069083,69166.55794811918
16065,Tl2Te,400,0.00012294878048087186,0.28347110082223315,0.04574584243373511,2156.469544938819
13018,ZrHf2Ni2.7Cu0.3Sb4,400,-0.00015646680520493245,2.4562400462047904,0.22541260557084336,52249.01358865576
7555,Co0.97Ni0.03SbS,400,-0.0002240004400265445,6.296664977954541,0.05413211883327251,14869.888324203714
6268,YbCd1.95Mn0.05Sb2,400,0.0001579633581210507,1.6442440041555717,0.2645409380099649,38475.081160136004
9608,Mg2Si0.6Sn0.4,400,-0.00011709181851291021,3.1895563297519813,0.3098557444449241,173513.17037229775
13017,Zr2HfNi2.7Cu0.3Sb4,400,-0.00016391905767437865,2.7793195196879497,0.3564322451545817,88507.1070745943
13039,In4Pb0.01Sn0.03Se2.9Cl0.04,400,-0.00021707049754202308,0.8020040206938553,0.22314480796576447,8156.818369539989
9604,Mg2Si0.6Sn0.4,400,-0.00012973814901932795,3.650418059547044,0.3293149266689735,169479.6601395472
13019,Hf3Ni2.7Cu0.3Sb4,400,-0.00012998890989645402,3.4849901533690817,0.1944825596103343,97029.38739309904
13041,Ca5Al1.95Mn0.05Sb6,400,0.00017496765354143226,1.294655632897904,0.11371073342591564,10964.667381690902
1930,CoSi,400,-8.511960023773598e-05,14.522787617354114,0.10973851623504667,526807.4912399198
2306,Ba8Ga16.6Ge28.7,400,0.00010202849555727591,1.6274058205763011,0.15860433912422067,68152.78458204707
9609,Mg2Si0.6Sn0.4,400,-0.0001077444042124479,4.419393769645754,0.20814801264460114,198100.48027205624
13044,Ca5Al1.7Mn0.3Sb6,400,0.0001388831484340219,1.2801373345194524,0.07317662804045688,13626.163266737576
13013,Zr3Ni2.6Pt0.3Co0.1Sb4,400,0.00016207787101988583,1.940644400738544,0.3241154603165669,57500.19432473117
13043,Ca5Al1.8Mn0.2Sb6,400,0.000152516613354602,1.1586771013619357,0.1066242786630952,14302.921735786067
7554,Co0.94Ni0.06SbS,400,-0.00014621780085770922,6.4550469317810455,0.04588152409541002,31554.617113931497
2305,Ba8Ga16.4Ge27.9,400,0.00011343608863711409,1.002094330069489,0.24418898360409005,43514.44563424875
10563,"Bi2(Te,Se)3+Al2O3",400,-0.00018168298671268534,0.9329353858504448,0.8013619464599284,56622.85573310678
13042,Ca5Al1.9Mn0.1Sb6,400,0.0001602342942775905,1.2198591475491818,0.09946544872891576,13189.59163264683
10562,"Bi2(Te,Se)3",400,-0.00018561979581525537,0.9465758543679494,0.8082221659473955,55510.81538418101
13015,Zr3Ni1.7Pt1.2Co0.1Sb4,400,0.00013922359284000897,1.884857854416233,0.3150602633705456,72486.37296512937
10561,"p-type (Bi,Sb)2Te3",400,0.00022699565035511567,1.3781592459174132,0.8489257031611774,56764.13496353188
6266,YbCd1.4Mn0.6Sb2,400,0.00021679385508314205,0.7867881603891179,0.2142215738972854,8169.543204095684
10617,(Sr0.95La0.05)2TiO4,400,0.00011331180919424744,3.7255649892275495,0.008123921250416076,5557.008729667992
13029,EuZn2Sb2,400,0.0001373314230702124,2.098587076030567,0.3519725885572165,100522.59167818994
13031,Yb0.75Eu0.25Cd2Sb2,400,0.0001822367362165996,1.4852730138651833,0.3683696029856587,38277.83263345133
13030,YbCd2Sb2,400,0.00020812693417621625,1.6360336269438245,0.2719367538106568,24627.887763269562
9607,Mg2Si0.6Sn0.4,400,-0.0001194956074090528,3.283574462437268,0.31456060264497404,171311.30726447518
6263,Sr3Ga0.93Zn0.07Sb3,400,0.00014514096620843654,0.9505713783541956,0.14056356346074195,16393.975580610782
2055,Fe0.92Mn0.08Si2.3,400,0.0002836190911294965,11.99977264821814,0.003809736883666997,1420.8135397088672
6264,YbCd2Sb2,400,0.00014432186884894178,1.7953043656537329,0.2348252062773372,44143.275685337685
2054,Fe0.92Mn0.08Si2.1,400,0.0003150997128904135,7.6997320003616485,0.007024465897309628,1361.861402476301
2053,Fe0.92Mn0.08Si2.0,400,0.0003125978324105467,8.25154162673153,0.006433865447001664,1358.2357372848328
2052,Fe0.92Mn0.08Si1.9,400,0.00022823327236382818,8.15806099763936,0.0058567616346140786,2293.1189937243016
9605,Mg2Si0.6Sn0.4,400,-0.00013726485624124962,4.136674763043593,0.32233867062972105,166198.03219596177
2293,Ba24Ge100,400,-2.747407730402203e-05,3.123636328342726,0.017318567793817175,195780.97398722023
13037,Mo2.2Ru0.8Sb7,400,7.183874007060766e-05,4.011824422546792,0.04300528691161992,87472.3047103139
2056,Fe0.92Mn0.08Si2.5,400,0.00027642570124401317,12.475545480740463,0.0034281969841974524,1399.2924182484348
9606,Mg2Si0.6Sn0.4,400,-0.00012223410519729828,3.188391439193234,0.3164858937699231,169424.75167563718
1932,(CoSi)0.95(SiO2)0.05,400,-8.689388318979015e-05,9.700349079224283,0.0915498986812934,293763.7782394084
2307,Ba8Ga16.6Ge29.8,400,6.866536179994437e-05,1.7595609638036285,0.11365377737728012,105812.29103441414
10542,Ca0.96Dy0.02Yb0.02MnO3,400,-0.00013765860079502658,2.036505834614251,0.07791520046744183,21928.50211879771
1924,CrSi2,400,0.00015371854060086484,11.998111857213942,0.04582185310113097,58166.516933264254
15851,(SnTe)2.88(In2Te3)0.04,400,9.767499704245038e-05,3.260984982449489,0.2766017021307333,239204.9063659784
13004,Cu2.0Sn1.0Se3,400,0.00020227878009320243,1.6489386082023856,0.05573117644881295,4959.32067461305
15853,(SnTe0.996I0.004)2.88(In2Te2.988I0.012)0.04,400,0.0001038057068789784,2.857420501403038,0.26008671880092915,172599.230634308
15854,(SnTe0.994I0.006)2.88(In2Te2.922I0.018)0.04,400,0.00010793936183926155,2.6785905246525448,0.26729733303900505,153815.30408194402
1925,CrSi1.98,400,0.0001477917545772559,10.859251646952963,0.04890400124405325,60783.246105626014
15855,(SnTe0.992I0.008)2.88(In2Te2.976I0.024)0.04,400,0.00010637147205700602,2.7156494430904807,0.2284055853065754,131867.85975267747
15856,(SnTe0.99I0.01)2.88(In2Te2.97I0.03)0.04,400,0.00010291663247763271,2.6979214970073544,0.18357549693745606,114925.76196915672
13005,Zr3Ni2.9Co0.1Sb4,400,0.00017631752281821868,2.3564728976176204,0.30303585580163783,55391.04108057618
15841,(SnTe)2.7(In2Te3)0.1,400,9.346676041434204e-05,3.060989489551965,0.29028224419632176,204531.70502929628
15829,TmCuTe2,400,9.145583912881179e-05,1.4131898868658752,0.1901228563664864,77660.88995919196
1926,CrSi1.96,400,0.00014548797547851006,10.509123593765773,0.05064017444741002,62856.11002079912
10543,Ca0.90Dy0.05Yb0.05MnO3,400,-8.872782384286439e-05,2.200421744669204,0.04604093472627513,36900.28341215333
13007,Zr3Ni2.7Cu0.3Sb4,400,-0.00014476927950626147,3.918126651188504,0.2099585251622368,87760.28738777617
13006,Cu1.975Sn1.025Se3,400,0.00039373373566501806,1.5404113800606951,0.10465797328043278,2380.105913639778
15852, (SnTe0.998I0.002)2.88(In2Te2.994I0.006)0.04,400,0.0001011572760957132,3.0045588070072253,0.26654068169894723,197424.86148035867
13056,Cu1.6915Zn0.0085Bi4.7Se8,400,-9.185518666690595e-05,0.5531459504166628,0.11710644591318012,22164.263249721305
15488,MnSi1.73,400,0.00014980626339787311,2.605667456869123,0.1770961742243009,52426.843126551175
12999,Cu2.13Sn0.87Se3,400,3.862631684811795e-05,3.890788435179524,0.056867494036195974,342181.83468111616
16265,Ir2Ru31.4xGa66.6,400,-0.0001655766017324713,3.1162626915035534,0.22586660570145506,67555.67592100809
12998,Mo2.2Ru0.8b7,400,7.267384941405156e-05,3.98829319714652,0.03957743120581872,86918.97127212059
15487,Mg2Si,400,-0.00011690011326585679,5.018157153982502,0.12574494005367431,115146.0815467424
15880,In4Se0.2Te2.8,400,0.00041599418228138144,0.6045738063820096,0.0120273751420926,96.02648933346785
13057,Cu1.6745Zn0.0255Bi4.7Se8,400,-0.00010275409112397052,0.6430668762096304,0.1398922828389734,20092.479547066472
1918,Mn2.95Cr0.05Si4Al3,400,-9.2009877111239e-05,4.1206379944919895,0.09897514191393356,120437.4919947254
15882,In4Se0.1Te2.9,400,0.0004197565311735859,0.8445601359965197,0.015833898513229867,193.7508056541752
13000,Cu2.10Sn0.90Se3,400,4.946800504959424e-05,3.394756278164767,0.06304767609195099,210811.6551245165
1927,CrSi1.94,400,0.00012653904186431126,10.704653134039148,0.04513330699578375,75432.87852036343
13002,Cu2.025Sn0.975Se3,400,5.2066460985325236e-05,2.349464162975319,0.03724847643625226,74829.0459573681
13055,Cu1.7Bi4.7Se8,400,-0.00015565407673502794,0.5429794720456176,0.12695189104142732,7165.541868767758
13001,Cu2.05Sn0.95Se3,400,5.857340741433256e-05,2.286687085043411,0.047968890334321564,76969.05467168582
10544,Ca0.84Dy0.08Yb0.08MnO3,400,-6.798318068965871e-05,2.1354198355470246,0.030179949573682887,40058.82886048766
15777,Pb0.997TeIn0.003?,400,0.00023080008011124292,1.7605389204977273,0.4399208168958856,36663.7900241032
9613,Mg2Si0.4Sn0.6,400,-0.00016251629859033732,2.738670201568881,0.4802534087906164,118125.94563964523
15778,Pb0.995TeIn0.005?,400,0.00022555986477569906,1.7389576380291938,0.3700384535328854,32157.598447705
15779,PbTe doped Pb2I,400,0.00012390627823526031,1.885929037486637,0.4843967705842493,131861.44244671395
15780,0.05 wt% PbI2+0.3 at% In,400,0.00022766187265580186,1.5346572795633617,0.5074060906911113,37709.43023615872
6272,YbCd1.9Mn0.1Sb2,400,0.00016065431173770868,0.9325418574221592,0.3374763588021359,26443.521859254863
15781,0.08 wt% PbI2+0.3 at% In,400,0.00022022528358827867,1.5145518075656093,0.6784495360263585,51001.39076151499
9614,Mg2Si0.4Sn0.6,400,-0.00014834201407712346,3.3548651627724766,0.4699848455887973,168445.32974012487
15782,0.10 wt% PbI2+0.3 at% In,400,0.00014306976539931317,1.8029648248773948,0.6067170858328512,125845.62430852947
15783,PbTe,400,0.00012605366269517504,1.8839002566910368,0.5052869547171626,131772.09625489145
15776,Pb0.999TeIn0.001?,400,0.0002915785763990726,1.6338189401200438,0.4155538664022684,20367.91596617433
6273,YbCd1.6Mn0.4Sb2,400,0.0002064429115933204,0.8596165054930747,0.27217678542618395,12662.530876589017
6269,YbCd1.8Mn0.2Sb2,400,0.00018991526222763333,0.8246752430841864,0.35125234275944195,18463.089912605275
6260,Sr3GaSb3,400,0.0002748275035712502,0.8855500503027387,0.09774332750605738,2494.8577822806274
9611,Mg2Si0.4Sn0.6,400,-0.00017565183998291767,2.969920724921794,0.5361028005361365,118810.30271108195
13045,Ca4.75Na0.25Al2Sb6,400,0.00016515636123756624,1.2053154190067057,0.16349026025105676,18600.113574230687
6270,YbCd1.2Mn0.8Sb2,400,0.00014421734091346215,0.8463148525665297,0.050213285684014716,4769.755906095421
9612,Mg2Si0.4Sn0.6,400,-0.00016589544564434846,2.7569019827818653,0.5503455764799421,124677.94606943926
1929,CrSi1.9,400,0.00011456405211410812,11.607045778893747,0.044937137316933336,99350.57300673424
10545,Ca0.8Dy0.10Yb0.10MnO3,400,-5.556731815367262e-05,2.600058946099192,0.01802360969805764,41767.220981326456
13010,Zr2HfNi2.9Co0.1Sb4,400,0.0001447129583681394,1.958348096069088,0.2920621607494349,64732.110209420214
13009,Zr3Ni2.9Co0.1Sb4,400,0.00017697974804020062,2.3600305627507834,0.30565067491781595,54988.868970866315
1928,CrSi1.92,400,0.00011972241838704624,11.32254831272402,0.041494210363886085,81944.67432385357
9615,Mg2Si0.4Sn0.6,400,-0.00014210612821705148,3.216714531667324,0.4797816342597098,182681.55870387107
1931,(CoSi)0.975(SiO2)0.025,400,-9.618989335632876e-05,13.30450121089623,0.14742525045732446,537519.3683842256
13012,Hf3Ni2.9Co0.1Sb4,400,0.00015365416914210506,1.812051334955807,0.25315073734419785,47308.35670310576
13011,ZrHf2Ni2.9Co0.1Sb4,400,0.00014248522080758327,1.6800841460148446,0.2549402699802197,50498.690172089475
15282,Bi0.48Sb1.52Te3,400,0.00020867887393868876,1.3605206772857308,0.7247632829747634,64004.551723917175
9670,SnBi2Te4,400,9.966690905462788e-05,0.9078219873880878,0.2882386287689241,67570.73476975388
16210,Tl9SnTe6,400,4.8899296686515335e-05,1.5167371830823546,0.08019376861074133,131725.48009658733
12893,Ca5In0.9Zn0.1Sb6,400,0.00013722757466536599,1.1200696813088855,0.13797571098755995,21214.691550811523
15283,Bi0.48Sb1.52Te3,400,0.00020515798546469398,0.8501057529706866,0.7824435718924403,46569.490969769744
12290,Zr0.5Ti0.5NiSn,400,-0.00019194940891115658,5.297837486329377,0.11640686456666155,41310.98081009907
10689,In4Se2.5,400,-0.00024436764319578363,1.0540060383373937,0.15346912151013342,7003.62683237819
16211,Tl8.3Sn1.7Te6,400,5.53278288449714e-05,1.1561811289536466,0.09737614880446603,101879.3146494134
9671,SnBi4Te7,400,0.00010676934441624064,0.7418384341461223,0.18783941146274696,27504.962404072787
16217,Tl7.9Sn2.1Te6,400,9.884266500705942e-05,0.7051584907680499,0.22363276121099507,36721.67877415011
12292,Zr0.5Ti0.5NiSn,400,-0.0001817345493005106,4.815178366724504,0.1479506668524112,55229.26916813605
13116,Ca3Al0.98Zn0.02Sb3,400,0.0001937879884692664,1.1354996681771512,0.045610147601527366,2947.8931882668358
16218,Tl7.95Sn2.05Te6,400,0.00010383752952970516,0.7530086935798495,0.23873508520309303,40592.712628110865
16219,Tl7.8Sn2.2Te6,400,0.00013733122037560712,0.493337195966275,0.2622159092061873,17238.951728270567
9677,In0.03Sn0.97Bi2Te4,400,0.00010471428501721148,0.9140419715021086,0.21730749041261466,45189.35982185813
12890,Ca5In2Sb6,400,0.0005142702868418425,0.8605179627830568,0.10625611887632426,904.1709511987102
12892,Ca5In0.95Zn0.05Sb6,400,0.0001762743538130719,1.1372632264156346,0.16368401826883722,14500.319898203465
9672,SnBi6Te10,400,9.902398968025706e-05,0.7609143412926801,0.13064393864288726,21869.96270287741
12891,Ca5In0.98Zn0.02Sb6,400,0.0002620635178611127,0.9453764582903956,0.17061676851001745,5251.981660660073
16215,Tl8Sn2Te6,400,7.545803671365327e-05,0.5882030150403004,0.1376459092893647,38595.65314649361
13115,Ca3Al0.99Zn0.01Sb3,400,0.00017295980564378127,1.3229451221252782,0.095955667006957,10960.151896884412
6322,Ca16Bi11,400,7.203286326676145e-06,1.4642010396475644,0.00035401521407569565,24974.758071927787
15322,TiO1.90,400,-0.00023221572285755682,3.2463517963534723,0.04108911840529275,6612.970539756043
9651,Mg2Si:Sb0.02,400,-0.0001155043261551084,4.287371758763031,0.0288386633100981,26147.67826832301
15321,TiO1.83,400,-0.00011113900958797194,2.901144513604207,0.03563945440521582,22145.07987651745
13101,(GaSb)2.7(Ga2Te3)0.1,400,0.0004002147729235649,3.479167629271948,0.0008498675811380374,46.15092337402916
13100,(GaSb)2.7(Ga2Te3)0.1,400,0.0003475766442802956,2.8172655383857124,0.0014601646681844213,85.12722084707275
9649,Mg2Si:Sb0.005,400,-0.00014675134462370976,4.795709897962016,0.024417310701283446,12137.442311291345
9648,Mg2Si:Sb0.003,400,-0.00018074504771645807,5.353981953961412,0.03963655737688704,13101.568193599143
13104,ZnIn18SiSn20,400,1.7728741705263322e-05,9.75505055201592,0.003874766600083981,248454.04516418773
10688,In4Se2.8,400,-0.0003002986156554181,0.9722811637091726,0.0845112164675107,2674.0653024718217
10687,In4Se2.9,400,-0.0004371555746112814,0.8977700860275166,0.06275525041238368,869.9625015028353
10686,In4Se2.95,400,-0.000467188615520863,0.7116854585875705,0.08958202825770722,846.1195973170368
15320,TiO1.77,400,-6.242607622860005e-05,3.2148110576724087,0.025273335005413358,58645.39064822392
12289,Zr0.7Ti0.3NiSn,400,-0.00024065133725932597,5.990318735098512,0.19979803376681668,44482.2594341465
13105,ZnIn18SiSn20,400,7.794918710479957e-05,6.822334863169748,0.032387013089600215,97617.07800444184
9678,In0.05Sn0.95Bi2Te4,400,8.238048523464346e-05,0.9427291278559656,0.06687868224599235,25213.274109731847
16250,OsGa3,400,-0.0004954365266211629,2.8296336033735403,0.01711246527887561,493.1814672975924
16249,RuGa3,400,-4.613474561562553e-05,2.7540997060628363,6.335574756253731e-05,204.9507097852046
10394,NaxCoO2,400,7.957608235645335e-05,1.9363915967221663,7.339392088934045e-10,0.0005610843800162952
13123,CaAl1.9Zb0.1Sb6,400,0.00011303750700859525,1.3005848635406076,0.09814197072411128,24374.039332120148
13124,Yb9Mn4.2Sb9,400,8.639219105991783e-05,0.6607336135513987,0.12367900485276355,27416.23971251681
9692,Ga0.03SnBi1.97Te4,400,9.433181024200191e-05,1.0014758224910179,0.19177479034796974,61103.55693310082
15241,As1.965Bi0.035Te3,400,0.00015821354028149588,0.9984230313866472,0.506124125540949,53991.721838868936
9693,Ga0.05SnBi1.95Te4,400,8.193771928038743e-05,1.383161476106473,0.1559113828688317,95169.0283381115
15240,As1.976Bi0.024Te3,400,0.00015525764332050714,0.9677166414194376,0.5053300684723322,51740.74154935559
15239,As1.983Bi0.017Te3,400,0.0001539634730797469,1.0259227244790758,0.6204252498758259,67344.3167644163
15238,As2Te3,400,0.00014697011503711719,1.0119747714829541,0.44647579075530064,52208.1849647474
16248,FeGa3,400,-0.0003769871392150417,3.110619011772381,0.01343893757696101,735.3577910109253
9694,Ga0.07SnBi1.93Te4,400,9.052144462917264e-05,0.8859014198076671,0.1943126383580608,57859.07963327
16264,IrRu33.4xGa66.6,400,-0.00020271961864014892,3.9009474708050575,0.15530615951410964,39953.10610174936
16263,Ir0.5Ru32.9xGa66.6,400,-0.00023415216303736085,4.06428264802102,0.08243863701911973,14587.921694333892
12880,YbZn2Sb2,400,5.530981481947324e-05,3.625822273589949,0.07687651667552113,268320.05195774557
10392,NaxCoO2,400,7.921682100557419e-05,1.9988265477453588,1.4394999302808922e-08,0.011462832483108587
13125,Yb9Mn4.2Sb9,400,7.333295936180504e-05,0.6405973467458222,0.08687434941125582,26504.264299648617
1666,Bi2Te3,400,-0.0001592408755350834,0.5689813811353375,0.6753146717494065,37882.1950210805
12886,EuZn1.4Cd0.6Sb2,400,0.00017383642845336485,1.554724843672275,0.392545248415508,48738.36356141051
1665,Bi2Te3,400,-0.00015565385358455241,0.43428688505309054,0.27861020652705965,12485.156511391435
9683,Ga0.07Sn0.93Bi2Te4,400,9.802049021667048e-05,0.908988466176894,0.20722151111459272,49163.86007228916