sampleid,composition,Temperature,Seebeck coefficient,Thermal conductivity,ZT,Electrical conductivity
13118,Ca5Ga2Sb6,400,0.0003910220346098917,1.1848947155431566,0.03630060823294132,718.5181337117289
1667,Bi2Te3,400,-0.00015540933187987885,0.60179062037367,0.9267358012881264,57728.0884867476
12887,EuCd2Sb2,400,0.0002624779131098215,1.1185552137910202,0.2482538355739801,9273.608249006127
9679,In0.07Sn0.93Bi2Te4,400,0.000106956716206638,0.5983472814033117,0.21914003063461973,27989.337131486584
13117,Ca3Al0.95Zn0.05Sb3,400,0.00017215617453142091,1.0874120286968707,0.05314432233596772,4691.408727090839
1668,Bi2Te3,400,-0.00013969589432593233,0.8095997099080705,0.6045666929314198,62702.85057175284
1669,Bi2Te3,400,-0.00013474493116932137,1.1026457533733964,0.4528463849649517,68754.64582807191
9681,Ga0.03Sn0.97Bi2Te4,400,9.398723706744604e-05,0.9474966026373218,0.2187153159159412,61415.05989855402
13119,Ca5Ga1.95Zn0.05Sb6,400,0.0001403788868661822,1.2406015479396928,0.11527599899430213,17511.602867205318
16239,SnSe,400,0.0002237789262362204,1.1992466502727668,0.0035458932085752366,208.98502992300652
16240,SnTe0.75Se0.25,400,7.844264570929775e-05,4.434507438027637,0.0924521061568602,159074.84294729392
12884,EuZn2Sb2,400,0.00013851235365521316,2.0787289794026966,0.3840927809225802,92875.2913565321
9690,In0.07SnBi1.93Te4,400,0.0001037718686079796,0.9698868467063126,0.15112442432709688,33968.62710515015
13122,Ca5Ga1.7Zn0.3Sb6,400,7.028300348102743e-05,1.6962223607913691,0.06288977841370302,58548.617211221776
9688,In0.03SnBi1.97Te4,400,0.0001058004730952998,0.8274693004466407,0.2272056672917153,40624.134614459246
12885,EuZn1.8Cd0.2Sb2,400,0.0001471804703869767,1.9408925044868424,0.4218116692467575,93080.29629071042
13120,Ca5Ga1.9Zn0.1Sb6,400,0.0001118229574006666,1.4588939377987766,0.1065899383948232,30983.308245937544
16233,AgIn5Te8,400,0.00011174098754957613,0.9482381276771352,0.0008151652537921072,124.74702998637754
13032,Yb0.5Eu0.5Cd2Sb2,400,0.00019726454192841897,1.3804232283453537,0.29107522057985136,23834.17213079785
1836,MnGe0.00875Si1.74125,400,0.00014322621165155984,2.301710988529748,0.20013245984486056,56138.82561001916
16089,Ag9TlTe5.1,400,0.00025641184462792035,0.21903735722181766,0.3599295298253007,2915.602717271215
16125,Ag0.95Pd0.05TlTe,400,0.0003604751330023053,0.5033612898330049,0.14662500724001798,1152.255280592927
16136,AgTl3Te2,400,3.827891438613044e-05,1.4177089781951715,0.022450394651603603,53144.05204333816
12920,Co0.85Ni0.15Sb2.88Sn0.12,400,-0.00014868164789347168,4.8839884870884385,0.14844135240115852,82463.64924230379
13098,(GaSb)2.85(Ga2Te3)0.05,400,0.00046521953835988234,5.268964972692331,0.0016049614805201714,97.68188726392624
16088,Ag9TlTe5.05,400,0.0003331485484494152,0.2372426326527116,0.1981742406228939,1131.3616764130002
10485,In0.19Al0.81N,400,-0.00012027096932111914,3.7198405710155615,0.009889030682685956,6377.054671618682
12923,Co0.79Ni0.21Sb2.88Sn0.12,400,-9.55627405667631e-05,5.005297273051824,0.10226100086697344,132379.38854809478
15388,Mn0.96Ag0.04Te2,400,0.00017505675288711115,0.9342653242692578,0.11634940721278506,8574.877771951577
15387,Mn0.97Ag0.03Te2,400,0.00017798533193104816,0.9735537645301025,0.13124673551078958,9002.116676066711
10483,MnSi1.73,400,0.00014448406798286007,3.6992162161635904,0.11306373322620945,50087.9346915013
1835,MnSi1.75,400,0.00014592494732571903,2.3637095054403097,0.17998318156935644,49946.716678192264
15386,Mn0.98Ag0.02Te2,400,0.00020178369340671348,1.0950854706128041,0.09535122285395776,5861.491751364916
10484,MnSi1.73,400,0.00014677886353848933,1.985131923663964,0.2268204800784984,52249.796812447246
16094,LT C/C composites,400,1.027384299329435e-05,10.935803613606092,9.3355237986349e-05,20839.093521153056
15383,MnTe2,400,0.00032795741472681987,1.5722278344966223,0.027144209527425158,1099.2029844424128
16095,MT C/C composites,400,1.4839144422247922e-05,14.436682991292038,0.00016064181330963833,24129.070613336287
15385,Mn0.99Ag0.01Te2,400,0.00022187593065377696,1.32398712436318,0.06803885604787077,4293.895834150349
16096,HT C/C composites,400,1.7734529580742598e-05,30.777072014907713,0.00019444501697166543,42763.67440122368
12288,Zr0.7Ti0.3NiSn ,400,-0.00023086199642857123,6.889151590515312,0.10643295464236924,29047.965110954214
15384,Mn0.995Ag0.005Te2,400,0.00026435276609533244,1.4243285546947722,0.03826442075200245,2175.754189955816
12286,ZrNiSn,400,-0.00030337585251490826,11.177532621397773,0.05788341512523665,14884.876771336765
6320,Ca16Sb11,400,2.494823045598866e-06,1.996356820046456,1.674925725400088e-06,1343.0563519735754
13099,(GaSb)2.85(Ga2Te3)0.05,400,0.000473592424548608,6.179436579537772,0.0009111433043380563,62.757564664882466
16079,Ag9TlTe5,400,0.0003327293343157889,0.2490534725297559,0.18554781042272367,1153.5356982951785
12919,Co0.87Ni0.13Sb2.88Sn0.12,400,-0.0001748944648995932,4.972792700813704,0.15524303705620818,61757.68719121275
1837,MnGe0.0175Si1.7325,400,0.00014610481798172194,2.370540696727453,0.20921847280184905,58084.24876250576
1838,MnGe0.02625Si1.72375,400,0.00014486120109618846,2.4149972787396887,0.2221857925177344,63924.711362881804
12918,Co0.88Ni0.12Sb2.88Sn0.12 ,400,-0.0001762706597437246,4.685490387631236,0.15290119704359414,53903.8893301768
13041,Ca5Al1.95Mn0.05Sb6,450,0.00018012148703749334,1.245907276544711,0.14274324137926714,10502.172714688077
13125,Yb9Mn4.2Sb9,450,8.320595851608068e-05,0.6330287360936471,0.1411338900527026,25096.43524994819
13042,Ca5Al1.9Mn0.1Sb6,450,0.00016499443609899883,1.1727274071930949,0.13168607272484786,12999.076915265092
13609,Ca5Al1.98Zn0.02Sb6 ,450,0.00021028760965498484,0.9615527770610566,0.06372216824760543,3221.395488478004
6242,Sr3AlSb3,450,0.0004092207302401229,0.8545785688536627,0.014888594792686703,168.84101018288646
13120,Ca5Ga1.9Zn0.1Sb6,450,0.000117895624045297,1.404818344927535,0.1435290993738367,30070.588215856947
6234,Yb14Mn1.1Sb11,450,8.571155332382561e-05,0.8967302352985572,0.1313303309304184,41185.99490723378
12429,Ti0.99Nb0.01NiSn ,450,-0.0001996970775311282,5.696716452200003,0.2715275919735741,78765.7785985734
13032,Yb0.5Eu0.5Cd2Sb2,450,0.00020942561311138567,1.2701902625407948,0.3998251848454445,22829.29610995252
6415,Yb11Sb9.3Ge0.5,450,2.2265971613982908e-05,1.1956747569379131,0.01037131392825797,56586.06324722241
13193,[CoSb2(GeTe)0.5]0.5(GeTe)10.5Sb2Te3,450,0.0001263820839482081,1.200447341300793,0.18671371743720955,36522.01066680536
13036,Mo2.5Ru0.5Sb7,450,4.571316916547632e-05,5.13395523115943,0.06291312142839252,364447.2495591129
13187,Eu5In1.95Zn0.05Sb6,450,0.0001862741234052085,0.9589989505859016,0.14825173371916814,7872.450279176318
13130,Yb9Mn4.2Sb9,450,9.683160391958828e-05,0.6289086258154479,0.1732435986490758,25822.481968314776
12433,Zr0.99Nb0.01NiSn,450,-0.000198763165303862,7.892445145757557,0.20236159915397714,80012.4228979
13123,CaAl1.9Zb0.1Sb6,450,0.00012192079808799051,1.2567179316149248,0.13205786284329704,23232.238276622622
13188,Eu5In1.9Zn0.1Sb6,450,0.00016315601424021767,0.9733698732294076,0.1619563921378938,10550.42304093035
13189,Eu5In1.8Zn0.2Sb6,450,0.0001567275755250375,1.0356279053400324,0.14786421513771153,11969.159863482457
13129,Yb9Mn1.2ZnSb9,450,4.714321696679236e-05,1.265554814185467,0.051574162509673706,65262.27388509932
12431,Ti0.95Nb0.05NiSn,450,-0.00011459455830724876,6.1517592776908705,0.2445419182840038,239001.58953108953
13037,Mo2.2Ru0.8Sb7,450,7.929607129873876e-05,3.9406134721546375,0.0734035427872951,84712.64409605492
13185,Eu5In2Sb6,450,0.0001928610465902403,0.9230915484330174,0.031409453300342866,1812.06981162702
13034,Mo3Sb7,450,2.8212820917264545e-05,5.849479373405467,0.02744037120832044,476355.7154894533
12434,Zr0.98Nb0.02NiSn,450,-0.00015728778251749025,8.305589619220513,0.20515332611884804,137688.41521315472
13124,Yb9Mn4.2Sb9,450,9.595306484877776e-05,0.652336102312795,0.17798834775240496,25059.993525107806
12430,Ti0.98Nb0.02NiSn,450,-0.0001631174194981921,6.113589255481477,0.27489898007231345,131050.22452518744
13122,Ca5Ga1.7Zn0.3Sb6,450,7.592659136629334e-05,1.6426698761901988,0.08951108469601958,56590.513788036114
13186,Eu5In1.975Zn0.025Sb6,450,0.00021074297137421892,0.9133928058689604,0.11976770564278215,5205.547512698582
13608,Ca5Al2Sb6 ,450,0.00037017262277144714,1.0624529798266258,0.03531511983164515,581.790139803348
13128,Yb9Mn2.2Zn2Sb9,450,2.5309730039337014e-05,1.5930219740552576,0.023937899318637,132287.94284621446
13148,Cu2.123Cd0.935Ge0.901Se4.041,450,0.0003334288095252282,1.0771812632848723,0.07352342833398515,1368.2549402661537
12524,Ti9Cr2Ru18B8,450,3.0309253185100043e-05,7.4392350015257,0.01856030619475367,300524.2675365877
13056,Cu1.6915Zn0.0085Bi4.7Se8,450,-0.0001002931619530547,0.5570622768856461,0.14412156427915704,20508.183591201017
5928,Bi0.4Sb1.6Te3,450,0.0001966814308920477,1.025926341447463,0.4869420017100983,28698.16877296507
13098,(GaSb)2.85(Ga2Te3)0.05,450,0.00041138449941358464,5.103554805711051,0.003287675785689184,220.3197369706257
12523,Ti10Ru19B8,450,3.466188519474159e-05,10.25011076649826,0.02708600989408549,495747.5184941201
13057,Cu1.6745Zn0.0255Bi4.7Se8,450,-0.00010810198981978328,0.6310000268652753,0.1668594972634602,19139.25433742044
6531,Ti1.031S2,450,-5.163894908609018e-05,2.404087944121545,0.06408301859647292,130755.48152024475
13065,Cu1.7Bi4.7Se7.84I0.16,450,-0.00011416839659913985,0.4970061415028464,0.0896464829158938,6975.946581115089
6231,Yb14MnSb11,450,8.934489498246981e-05,0.8975927106693583,0.11563364270915327,33066.58391771622
13143,Cu2Cd0.35Zn0.65SnSe4,450,0.00023285957531125355,1.9123239008352304,0.07613068283331448,4991.448966378265
12528,Ti9Ni2Ru18B8,450,2.939186590812304e-05,8.003553311804657,0.017441743314783667,332462.26372888044
12527,Ti9Co2Ru18B8,450,2.7581229022787794e-05,6.752909975972501,0.0183142852735322,315821.77704330324
12526,Ti9Fe2Ru18B8,450,2.8944515778909263e-05,7.766073768940427,0.014989084065871594,293980.34754456056
13055,Cu1.7Bi4.7Se8,450,-0.00015159216572847522,0.5492724383256511,0.14465741433804175,7955.03549888398
13152,Cu2.125Cd0.875GeSe4,450,9.51657721158976e-05,1.3131201488457782,0.018648097770128214,5050.8716809232865
12525,Ti9Mn2Ru18B8,450,3.663560118834881e-05,7.37959165907022,0.036238486302965736,385994.3732830156
13105,ZnIn18SiSn20,450,8.360607671212484e-05,6.192214072407213,0.056815363600611235,93587.83041700767
12505,B4C,450,0.0002982530630725263,19.057205507439647,0.0010882261505748524,455.670584690179
13100,(GaSb)2.7(Ga2Te3)0.1,450,0.00030969104371463083,2.755454073109098,0.0036669683255996116,234.11569534763092
13062,Cu1.7Bi4.6915In0.0085Se8,450,-0.00012855484404710797,0.5457228903271211,0.11912172722280814,8116.156014866397
13061,Cu1.7Bi4.6745Zn0.0255Se8,450,-0.0001365085984077283,0.5804186786482454,0.1309481206171083,10471.553205718925
13147,Cu2.086Cd0.950Ge0.906Se4.058,450,0.00044565289426140976,0.9906710558175812,0.033620350506973366,338.14808776899486
13099,(GaSb)2.85(Ga2Te3)0.05,450,0.0004140146436195563,5.9377370693318285,0.002624285819183064,202.01712112068185
13063,Cu1.7Bi4.6745In0.0255Se8,450,-0.00012657158864517957,0.5382171095162321,0.1166990001238832,9065.47963652965
13058,Cu1.6915In0.0085Bi4.7Se8,450,-0.0001124882541368295,0.6155742064289439,0.1966285779280201,20576.599648260883
13059,Cu1.6745In0.0255Bi4.7Se8,450,-9.565710650247033e-05,0.6110589131220506,0.13321929378930158,19807.498677519758
12458,In0.17Ga0.83N,450,0.00014739801053451028,2.645103039019956,0.08522624344674938,20233.013437192523
13101,(GaSb)2.7(Ga2Te3)0.1,450,0.00033266264704223214,3.3953961859504256,0.0027954443520737397,190.5990431960404
13060,Cu1.7Bi4.6915Zn0.0085Se8,450,-0.00012452645099690458,0.6105196405714761,0.1360682751091472,9826.082579697148
13064,Cu1.7Bi4.7Se7.92I0.08,450,-0.00011927269971795501,0.5181945552552872,0.17578207539391846,14317.890271754068
12529,Ti9Cu2Ru18B8,450,3.3053027732934286e-05,8.917479336736923,0.025142123013112725,447702.0747611819
6244,Yb14MnSb11,450,7.990211798554138e-05,0.838012769601713,0.123775356540494,38882.40472319742
13045,Ca4.75Na0.25Al2Sb6,450,0.00016904667532143482,1.157718111011854,0.2097028815272233,17556.26362555778
13095,Cu2Ge0.85In0.15Se3,450,5.806010902561592e-05,2.5781105799542128,0.09086376283052844,140441.70630122
13611,Ca5Al1.9Zn0.1Sb6,450,0.00015569870208409929,1.1182361893203132,0.08556822491022799,7230.535586665666
13043,Ca5Al1.8Mn0.2Sb6,450,0.00015613480846934474,1.12148573790606,0.1333367250339598,13799.60793733134
13119,Ca5Ga1.95Zn0.05Sb6,450,0.00014550389352039117,1.1965278097919247,0.15130869569487482,17079.404591096223
13094,Cu2Ge0.9In0.1Se3,450,6.489386028434405e-05,2.0875244733542258,0.05872433381282916,76982.86545937294
6260,Sr3GaSb3,450,0.0002836331162283632,0.8560854780812239,0.12963368241995135,2499.642317755922
13118,Ca5Ga2Sb6,450,0.00033872310432025104,1.1733077566379524,0.031458861154922836,798.1768108996678
13610,Ca5Al1.95Zn0.05Sb6,450,0.00016787925611938138,1.0058263750539884,0.06372216824760543,5892.8820096970885
13044,Ca5Al1.7Mn0.3Sb6,450,0.0001447773094004433,1.2328562464935853,0.10421973387633593,13123.687122593557
6528,Ti1.008S2,450,-0.00010857500764262164,2.808341539819588,0.1924938962245064,99378.10042738693
6529,Ti1.031S2,450,-5.6945274473009104e-05,2.9656676521454735,0.07179952323343444,151899.1067628141
5923,Yb0.2Co4Sb12,450,-0.00020674012862936642,2.5657756083461303,0.2402974178194449,27698.12162854642
13142,Cu2Cd0.4Zn0.6SnSe4,450,0.00020332465824124543,1.6788327802715293,0.09271668802012616,6740.126071189809
13612,Ca5Al1.8Zn0.2Sb6,450,0.00011587407705366013,1.247781290519545,0.11928217411000637,22115.974660298358
13115,Ca3Al0.99Zn0.01Sb3,450,0.00018339054503458942,1.24106393145492,0.13644763384665334,9794.300303387041
13627,Ag0.68Sb1.32Te2.26,450,0.00011202401976749988,1.05833190364149,0.2895249752945668,57119.186828288526
13141,Cu2Cd0.45Zn0.55SnSe4,450,0.00022924981301625542,1.8278973754283083,0.07500865130261578,4849.874913884156
6526,Ti1.008S2,450,-0.00012152813719882627,2.303107662205821,0.14027304716409594,51949.70233050707
6017,Eu11Cd5ZnSb12,450,6.507680041858329e-05,0.901851532809566,0.06805583413330342,29627.33876712324
13031,Yb0.75Eu0.25Cd2Sb2,450,0.0001952282685978545,1.3630094649366329,0.4882050491357296,35005.7483941672
6351,CaMnZn0.8Cu0.2P2,450,4.9061413030974294e-05,2.3455133266136743,0.00038805551550133937,840.3092554206465
5990,YbCd0.8Zn1.2Sb2,450,8.253549103226065e-05,1.7632546608005608,0.2410058436138415,118599.44274414568
12923,Co0.79Ni0.21Sb2.88Sn0.12,450,-0.0001066776389569388,4.9004563561126435,0.15400558827790162,131911.68133286008
6350,CaMnZnP2,450,0.00017876952090564382,1.8718527250628918,0.00010142982342811476,13.201943785948936
6123,PbTe,450,0.00013408551099282617,2.765686852497199,0.4856455698801528,170160.49339816926
12929,MoSb5.4Te1.6,450,7.963524208262268e-05,3.696456915969288,0.0906741381547358,126859.59866015807
12928,MoSb5.5Te1.5,450,7.351269819448841e-05,4.228441900762883,0.09018984621576544,170476.27161499526
5988,YbCd1.2Zn0.8Sb2,450,0.00010760745595971408,1.6315355786702077,0.33732785962643874,89083.03180076867
5989,YbCdZnSb2,450,0.00010144855868130228,1.7745470424815544,0.3388660434845654,112788.5435729607
12921,Co0.83Ni0.17Sb2.88Sn0.12,450,-0.00013557375093382684,5.091777293491481,0.18707390546263675,133574.6679725026
12920,Co0.85Ni0.15Sb2.88Sn0.12,450,-0.00015201667002581076,4.768814748818639,0.1816835246696672,82829.65596596642
5995,Eu11Cd6Sb12,450,0.00013671338716349452,0.7291650307456913,0.1293186599796405,10497.208898748575
6320,Ca16Sb11,450,4.2519253433694224e-06,1.9169520426522757,5.27683129506474e-06,1243.3708546133373
6341,Yb13CaMnSb11,450,8.83261911335827e-05,0.8519188415992754,0.1470103520200849,37374.30965113715
6339,Yb1Cd2Sb2,450,0.00015625766483878651,1.551937501323979,0.322605043980037,38809.778697906164
6338,Yb0.8Ca0.2Cd2Sb2,450,0.00017385972493295582,1.2688671292337483,0.3392781640695897,28629.01808808325
5996,Eu11Cd6Sb11As,450,0.00011868995614060928,0.7068354479489186,0.11659181575564895,12379.655219386455
6347,Ca0.99Na0.01Zn2P2,450,0.0002099796893661795,2.39776624094842,1.4399385851258768e-05,1.740138112709558
13449,Ca2.85Na0.15AlSb3,450,0.00015529454229171972,1.2186959375396873,0.051747005745115086,5811.064403179442
13309,Ce0.9Cu0.1Se2,450,0.00032973077730876377,0.9833566986957925,0.07731078387931599,1569.5507641939553
12919,Co0.87Ni0.13Sb2.88Sn0.12,450,-0.00017707706572211572,4.849908719215437,0.19277064568652488,62442.58276191026
6346,Mg3Bi2,450,4.9885104810247355e-05,3.647335792015893,0.07088828480988787,193823.32416937352
5987,YbCd1.6Zn0.4Sb2,450,0.0001314729781921855,1.5278194188235426,0.4923352423135514,89000.91386272307
12918,Co0.88Ni0.12Sb2.88Sn0.12 ,450,-0.00017932746494420096,4.5543871887166585,0.1944615720414245,54812.217116666434
13310,Ce0.8Cu0.2Se2,450,0.0002662904986402823,1.7294694982139605,0.0348926079581274,2050.2735144242165
13311,Ce0.7Cu0.3Se2,450,0.00016127790093309083,1.852671939959624,0.049532000279281736,7658.786321783494
6337,Yb0.6Ca0.4Cd2Sb2,450,0.0001965697341630587,1.1009314885067971,0.4568318781940449,26132.10580847072
12723,Cu2.23Zn0.91Sn0.90Se3.94,450,0.000290892436584659,1.359073508697741,0.06850432515447241,2508.0236164394664
5983,Nd0.7Yb0.3Fe3CoSb12,450,0.000131704020968843,1.8822797529297648,0.4291500421850438,96289.86181144543
12724,Cu2.07Zn1.05Sn0.92Se3.93,450,0.00013514247796376117,2.303947875072313,0.07105905654921463,20666.765061934784
12725,Cu2.07Zn0.95Sn1.00Se3.96,450,0.0001093549288056648,2.494838875551164,0.06888577725951807,35660.888718184135
12726,Cu2.04Zn0.98Sn0.96Se4.00,450,9.692713112240573e-05,2.8222003610027016,0.06481695728195562,39891.208418520066
13272,Zn4Sb3 ,450,0.00011732564421061465,0.7289421765132544,0.4778516964825319,51435.56573170826
13266,Ca0.84Ce0.16Ag0.9Sb,450,8.845387099707144e-05,0.67853758285879,0.26232392572837976,49031.13558127576
12717,Cu1.94In0.02Se,450,0.00013919530370812608,1.2418765904125062,0.29012131435095445,39243.29437326581
12718,In4Se2.32Cl0.03,450,-0.0002505331121355109,0.9761319441814548,0.6179698772066274,19799.719452541955
13264,Cu2.3Zn0.7Ga0.12Sn0.88Se4,450,6.082379386795725e-05,2.370887921942161,0.0676608963510035,87897.27158633035
5982,Nd0.6Yb0.4Fe3CoSb12,450,0.00013005242359597594,1.8010136987731682,0.5134839559895643,113303.37017490086
12719,In4Se2.67Cl0.03,450,-0.00014100678667637546,0.7352552629096099,0.7378417404641856,54319.563568313395
12948,Cu2Sn0.925In0.075Se3,450,0.00010852528050273776,2.2896130909834294,0.1433766409457794,50199.503715224426
12736,Pb(1-x)Sb(x)Se at nominal compositions. here x is 0.01,450,-7.929135417671104e-05,3.3433619623929465,0.20109315979202613,205795.1466580507
12737,Pb(1-x)Sb(x)Se at nominal compositions. here x is 0.0125,450,-7.584500973480419e-05,3.688227661964437,0.1799566221571014,224498.99064248343
5986,YbCd2Sb2,450,0.00015613808532048245,1.5629818240065882,0.3290287340988235,39378.56079764062
12739,Pb(1-x)Sb(x)Se at nominal compositions. here x is 0.0175,450,-7.036306642392211e-05,3.4683863250444564,0.17596970183294108,245051.0332929421
12740,Pb(1-x)Sb(x)Se at nominal compositions. here x is 0.02,450,-6.959807604034625e-05,3.4634730290843234,0.17627110769353616,230671.9540780085
12728,Cu2.09Zn0.91Sn0.99Se4.00,450,7.847993386698796e-05,2.6409111398631517,0.052622361218438496,46325.24014071695
5984,Yb13.6La0.4MnSb11,450,9.14182609233096e-05,0.706009372663033,0.16472962552299392,31078.393082308325
13401,Cu2Mn0.05Sn0.95Se3,450,5.737881036522052e-05,3.2386933926842363,0.09201056218437577,180651.982606128
12729,Cu2.05Zn0.95Sn0.97Se4.03,450,7.739571307032169e-05,2.441295244364981,0.05338824085280225,48475.13868705245
12947,Cu2Sn0.95In0.05Se3,450,0.00011844354987367249,2.255517733137487,0.12995751267956673,39142.15315704218
12946,Cu2SnSe3,450,0.00018701075293039017,1.957584106905643,0.10712912476382558,10843.59079021988
13400,Cu2Mn0.02Sn0.98Se3,450,7.533017034355697e-05,3.0738545587201216,0.1069044617941504,114198.32135159752
13399,Cu2Mn0.01Sn0.99Se3,450,7.752068121595763e-05,2.719322598537733,0.135804161684141,109455.47011861132