sampleid,composition,Temperature,Seebeck coefficient,Thermal conductivity,ZT,Electrical conductivity
10253,Hf0.75Zr0.25NiSn0.96Sb0.04,500,-9.703992852543234e-05,6.4152803239641605,0.24748418354260898,341657.8918566542
14992,Cu:Co:Sn:Se = 1.82:0.16:0.76:3,500,0.00018910215541684052,0.9048947212303956,0.2102013452820181,9142.959681531062
15776,Pb0.999TeIn0.001?,500,0.00029577816520769026,1.4277088674517722,0.5051984772029817,17095.687826832283
9482,(CoGe2)0.15(GeTe)12Sb2Te3,500,0.00020979634741254472,1.4586628039256824,0.6200836694677384,38786.98203410102
16462,(Zn0.999Sm0.001)4Sb3,500,0.00016624492942403195,0.8394936761175724,0.5213614195695648,26812.745142805255
36,Fe0.98Ti0.02Si2,500,0.0002409936652734601,8.539895263913683,0.0015419533184282074,542.8875636734898
14991, Cu:Co:Sn:Se = 1.94:0.15:0.71:3,500,0.0001548777324517131,0.8725217655771754,0.21119113055060332,13822.689810181655
6396,Sr5In2Sb6,500,0.00031493467067151204,0.8457599158494803,0.0016043914217206885,27.361914217418818
15782,0.10 wt% PbI2+0.3 at% In,500,0.00016577429235403038,1.5563410197241827,0.7781482495839015,96464.75783705588
10152,Mn0.95Cr0.05Si1.74,500,0.00015319303696526674,2.714009362414998,0.21435443142556004,49578.7703975005
16467,MnSi1.7,500,0.0001595845491171411,2.1930695422193294,0.15723915225160606,27147.76099112481
10251,Hf0.75Zr0.25NiSn0.94Sb0.06,500,-6.938062704249713e-05,5.674483604763926,0.12010779558979633,279992.4036187594
13555,Cu1.3Bi4.90Se8,500,-0.00010794582741237017,0.6398642261344073,0.2193680124571073,24384.881376494952
9615,Mg2Si0.4Sn0.6,500,-0.0001624430579997021,3.1241005386248264,0.6496646908532043,146012.95800492173
479,Fe0.96Nb0.04Si2,500,9.418185683718348e-05,7.330710574601464,0.0008296203513126941,1412.6072743851175
1931,(CoSi)0.975(SiO2)0.025,500,-9.418488419039346e-05,12.72862295780746,0.15594373881043444,493730.0751213896
13556,Cu1.4Bi4.85Se8,500,-0.0001206559775788094,0.5682438234499121,0.23318809541174504,18361.638438683116
15783,PbTe,500,0.00015700215569036883,1.5898533015656442,0.6646791800565427,98037.33039008039
14985,Tl2Te,500,0.00017000903832432556,0.3555261289310266,0.1082270275045054,2324.838002543639
16465,RuGa2,500,0.0001593460014680081,3.6319603296685576,0.3253381806768652,80614.11067302605
6392,Ca5In2Sb6,500,0.00033848080575593365,0.8376531553729031,0.07296499305353688,1066.941671245145
14121,CuInTe2 ,500,0.00021759869936360126,46.04750171497786,0.008181512696428047,17078.80668382027
6393,Ca3.75Sr1.25In2Sb6,500,0.00036534331073456814,0.7281751322240259,0.0224304976137074,244.73857518157908
10151,TiMnSi2,500,1.5302114385859593e-05,7.886740670790242,0.0008643608674906601,58226.37659366763
15089,La2.74Te4,500,-0.00010831227105641504,1.11672219469062,0.2025462579817789,32080.895888271163
35,Fe0.98Nb0.02Si2,500,0.00010475637329126072,8.577714510850214,0.0008405944841862183,1245.2062465782708
16466,RuGa2,500,0.00015168957335609214,2.951015396959136,0.33235952219266385,75152.11691144107
12675,TiNi(1+y)Sn. Here y is 0.25,500,-9.98789341803442e-05,5.669281737684423,0.14112681829802998,147856.93836112606
1930,CoSi,500,-8.610089383574822e-05,13.821173202867891,0.12496201734181113,482466.22919053276
9608,Mg2Si0.6Sn0.4,500,-0.00014323802557368842,3.05565258874228,0.485573501231766,134010.82595735573
10146,MnSi1.73,500,0.00017641456635399043,2.3655140777503343,0.16404839257591974,24937.828216806163
10563,"Bi2(Te,Se)3+Al2O3",500,-0.00012611993479650637,1.070688100449984,0.3613013199649542,48640.16558843997
10562,"Bi2(Te,Se)3",500,-0.00016985151178869657,1.0860704374119825,0.5868975491382001,44188.72294176583
12659,NbCo(1+x)Sb here x is 0 ,500,-7.49357951735006e-05,5.976823689855492,0.12886072103928375,252757.9879370901
14146,Bi2Te2.85Se0.3,500,-0.00016830504129729043,1.3557016025598407,0.4909037792538862,54053.48196251747
14147,Bi2Te2.85Se0.3,500,-0.0001602819136664519,1.3063822428455516,0.49472211241875,51154.17996866812
14148,Bi2Te2.85Se0.3,500,-0.00017057620489151218,1.2859466468732703,0.5776204405729426,51268.22394017204
12660,NbCo(1+x)Sb here x is 0.2,500,-8.481107902758759e-05,5.490450345242435,0.1482407712860957,212696.97957390329
4618,La0.3Co3.68Ni0.32Sb11.84Te0.16,500,-0.00015906992483244616,2.1882846647102427,0.4179212734840829,68003.53258754135
236,Pb0.98Na0.02Te0.92S0.08,500,0.00018179236862311308,1.6422150377678264,0.6731839003519744,66902.51511854872
10609,Zn0.98Al0.02O,500,-4.898996034732177e-05,19.267739166086614,0.0050682379239375295,69223.93652950767
10145,MnSi1.75,500,0.00015861731959335726,3.6331345522632175,0.10843778612703467,31317.775526840607
14999,Cu2ZnSnSe4,500,0.00011726043799123765,1.2476874537915212,0.08722904905915474,13903.14977915719
5995,Eu11Cd6Sb12,500,0.00013902826099309066,0.7130665218395451,0.14524896516161168,9905.479320117907
6401,EuCd2Sb2,500,0.0002777181483796141,1.2344232649232527,0.3390972841537444,9619.845649259034
15000,Cu2ZnSnSe4,500,7.757591704589102e-05,1.4204103805255068,0.08489776058058288,34893.583326151354
12661,NbCo(1+x)Sb here x is 0.3,500,-0.00010059525984721015,4.795292253700484,0.1565833568015754,140426.12374543198
14998,Ag2Te,500,-0.00010871319422283526,0.7979914093417357,0.3995237867312948,53951.84987950166
11064,Al2CrCoFeNi + 5 wt.% Sc,500,-1.554705057855156e-05,13.031259401500675,0.00692735528946369,725746.0503715959
10256,Hf0.75Zr0.25NiSn0.98Sb0.02 ,500,-0.00011700121653227239,3.3194967326928797,0.22353098371732635,105771.01734478989
11065,Al2CrCoFeNi + 0.3 wt.% Sc,500,-1.7440754360315468e-05,12.48353308009733,0.0091448411019211,712453.226573798
14145,Bi2Te2.85Se0.3,500,-0.00018132534382790143,1.2004629265575986,0.6564019805803987,48495.251495701545
13547,In4Se2.35,500,-0.0003527450877045438,0.8636647625678291,0.383834645462493,5066.955161361178
15086,La3Te3.65Sb0.35,500,-6.385127784662942e-05,2.038968147078959,0.06398061942187275,65514.50695704262
12671,TiNi(1+y)Sn. Here y is 0,500,-0.0002167978058219901,5.267636986295097,0.21094501759833426,39382.30086589372
12668,ZrCo(1-x)Pd(x)Bi here x is 0.09,500,-0.00011849830237675329,7.779196255207022,0.08697076289194365,80180.57490878749
9611,Mg2Si0.4Sn0.6,500,-0.00019669823754691698,2.9224019687067053,0.6790193193263453,95995.16625889897
15467,MgFe2O4,500,-0.00013852571596528822,4.057012768927616,0.0011484798519488606,426.910698887952
476,FeSi2,500,0.00021507695739700342,9.60561665801524,0.0012034569574880336,476.1366254577845
10254,Hf0.75Zr0.25NiSn0.94Sb0.06,500,-6.551878096922137e-05,7.962201858084715,0.13474639109166475,453812.8062363582
12674,TiNi(1+y)Sn. Here y is 0.075,500,-0.00016632407660442918,4.5128696969591715,0.259287083651205,78273.57482890514
5997,Eu11Cd6Sb10As2,500,9.121382503331956e-05,0.7080096887252858,0.05698365265702735,9122.249005849113
9612,Mg2Si0.4Sn0.6,500,-0.00018158687842949762,2.7290748074595714,0.6536321138776235,100477.32057219803
12663,NbCo(1+x)Sb here x is 0.5,500,-0.00012449106115423013,3.98520834725121,0.08240791786434673,34341.2154812651
1932,(CoSi)0.95(SiO2)0.05,500,-8.852082198108862e-05,9.566022630526373,0.10375549123860207,288521.02275784174
10148,Zr3Mn4Si6,500,1.6248276068990233e-05,18.83070636640442,0.0011006928831185595,157017.54636727247
15084,La2.99Te4,500,-4.434591283065782e-05,2.731234193005576,0.048689405846658734,160512.89685614285
9609,Mg2Si0.6Sn0.4,500,-0.0001230025745722022,4.4411398516982965,0.2887812259312633,169537.19645661878
12662,NbCo(1+x)Sb here x is 0.4,500,-0.00014137169912052178,3.9303365526132974,0.13846495039251894,47367.43793807107
14143,Bi2Te2.85Se0.3,500,-0.00017976627923493532,0.749089779466971,0.4878746064392603,23355.70050001609
17151,Zn0.97Cd0.03Sb,500,0.00021387151985538115,1.4579973931958263,0.5925905067737368,37777.700706611715
14144,Bi2Te2.85Se0.3,500,-0.00017245143729257106,0.9117186005505734,0.5189110270669102,29663.530725592314
5161,Sn0.25Co4Sb11.625Te0.375,500,-0.00019353685643623436,4.174230812134547,0.4113469629503014,88141.61850396793
17149,Zn0.97Cd0.03Sb,500,0.00021753826938551168,1.5806446491725663,0.618430703520126,39469.4667671035
15085,La3Te3.80Sb0.20,500,-5.041571821704144e-05,2.61300075145318,0.07140565525969914,165612.95792597858
17148,Zn0.97Cd0.03Sb,500,0.00022569087540146075,1.4423446680488894,0.6645376164768746,34449.92476368115
10255,HfNiSn0.98Sb0.02,500,-0.00010718899984855084,4.903394178720191,0.15243726774903996,122035.91274555842
5996,Eu11Cd6Sb11As,500,0.00012138543201336465,0.6879544353795486,0.128077102455117,11519.763069306167
11066,Cross Reference for comparison,500,-1.696565724798463e-05,11.574319908876696,0.007364433088641035,627827.9128398157
16440, (Zn0.995Cd0.005)4Sb3,500,0.00016786878806781158,0.7094367765668146,0.8108867345682573,40337.179227711764
14360,(PbTe)0.1(Ag2Te)0.9,500,-0.00014362237962994962,0.560920186219361,0.6314908850285866,30229.968892716308
12421,Nb0.99Ti0.01CoSn0.92Sb0.08,500,-0.00011205262460296777,6.2340840741726575,0.15193852441496142,142905.45191412742
10977,Nb0.99Ti0.01CoSn0.9Sb0.1,500,-0.00010481266290836072,6.0165567366616415,0.16107585896650425,186451.2459555624
2305,Ba8Ga16.4Ge27.9,500,0.00015255622453092172,0.965597886371004,0.4149015515978345,34484.72010688157
15046,(Cu2Se)0.985(CuGaSe2)0.015,500,0.00011876932536527151,1.1354074837193906,0.3988516609077707,58086.131354224904
14315,PbSe,500,-0.00020273414913668376,1.0658314992773663,0.14038185860964647,6257.475059884399
14361,(PbTe)0.1(Ag1.9996Te)0.9,500,-0.00015561531867336665,0.4477312350687527,0.8310227286004791,27390.923739341008
10113,MnSi1.75,500,0.00018733431888656515,2.694349809722966,0.2595628271033907,39855.8228621808
14313,PbSe,500,0.0002705773695174046,0.9521785242297224,0.07303113917335588,1789.6027696723013
10263,Hf0.6Zr0.4NiSn0.98Sb0.02,500,-0.00012936486479420486,4.4322369689031165,0.4068134999035549,201251.10972652785
10976,Nb0.99Ti0.01CoSn0.92Sb0.08,500,-0.00011211235723730903,6.2886381870536265,0.15252931034482758,143419.6726532394
274,Pb0.98Na0.02Te0.96S0.04,500,0.00017093677209169223,1.8865985305984465,0.5945719087139467,76779.07520798313
14325,In4Se3,500,-0.00039250557308932895,0.6358082957109581,0.335004871948538,2625.877862472485
14326,In4Se3,500,-0.00042525224217930616,0.6045857158806249,0.2840194243165216,1983.3728863032336
10114,MnSi1.7321335Ge0.0008665,500,0.0001579342147353741,2.2824191722816773,0.14121618206886294,25843.862235866723
15048,(Cu2Se)0.97(CuGaSe2)0.03,500,0.0001009566614223104,1.2898299726257212,0.331283581043406,74418.63997860388
14327,In4Se3,500,-0.0003921025513709976,0.6284782868151157,0.27937228208636955,2234.75848947322
14324,In4Se3,500,-0.00039617798787484,0.6706772203607729,0.24579928112629845,2056.106787299708
10975,Nb0.99Ti0.01CoSn0.94Sb0.06,500,-0.00012479832122926134,5.574889116009464,0.1468076423094869,98228.1254707886
12458,In0.17Ga0.83N,500,0.00015512413263460878,2.469234474381092,0.11252943375844417,19205.648743316066
14321,In4Se3,500,-0.00044210504948639413,0.6109286363101071,0.25274636614457324,1679.7551358207456
15047,(Cu2Se)0.975(CuGaSe2)0.025,500,0.0001096516283188922,1.180186767471771,0.3666441023582968,59688.04826580058
14322,In4Se3,500,-0.0003595974730128625,0.7006918308331428,0.2306402986235105,2182.2212766438392
14323,In4Se3,500,-0.0004007229584826028,0.6697693593930765,0.24744903378692215,2054.438640435993
5982,Nd0.6Yb0.4Fe3CoSb12,500,0.00013636100327528992,1.8262787070717108,0.5939839117247525,109529.49387471822
10124,MnSi1.73Al0.005,500,0.00017626045947368978,2.744553742690439,0.19843156919654767,35059.25684197365
14358,(PbTe)0.05(Ag2Te)0.95,500,-0.00014005669329990428,0.5247111553898501,0.7209591884614587,32497.590684956784
5984,Yb13.6La0.4MnSb11,500,0.00010136558698450254,0.7017058392238682,0.2337992539255284,27961.92658646877
302,Pb0.997Ga0.003Se1,500,-0.00016751410768134616,1.7752253722582283,0.6335367652014393,80159.04571040161
9604,Mg2Si0.6Sn0.4,500,-0.00015048862569050632,3.57834853003762,0.4540562835489497,131432.35275898865
10126,MnSi1.733,500,0.00016931626259355842,2.243906270331688,0.25487757556213425,39899.64100991694
12419,Nb0.99Ti0.01CoSn0.96Sb0.04,500,-0.00013493655714911943,6.442701613304316,0.11729340057902847,80706.67281794075
9605,Mg2Si0.6Sn0.4,500,-0.00015535165866979158,4.1048016082725365,0.4159555171811446,132162.4672958457
249,Pb1.003Se0.88S0.12Cl0.006,500,-0.00014207136376895142,1.788302271742903,0.5708740268799296,111677.50790074377
14296,Cu2-xSe,500,0.00010397875448936776,0.551380218334289,0.4675167086826381,42070.70624353989
13401,Cu2Mn0.05Sn0.95Se3,500,6.260309959392562e-05,3.0270130099587944,0.12397496940093375,165172.63684752458
10127,Mn0.97Cr0.03Si1.74,500,0.00014637479316678546,2.5891816422745118,0.2520487572958029,60917.838684000686
5983,Nd0.7Yb0.3Fe3CoSb12,500,0.00013766369817016014,1.921487771462756,0.4918606355018061,93668.23979876797
49,Pb0.98Na0.02Te1,500,0.0002330641645189105,1.4304088260601189,1.473355342028318,77597.31141794578
12422,Nb0.99Ti0.01CoSn0.9Sb0.1,500,-0.00010473434289124825,5.95578163232754,0.1602479460829611,190518.80743551665
12420,Nb0.99Ti0.01CoSn0.94Sb0.06,500,-0.00012457448660089398,5.527888033793423,0.14669351042385093,97303.05389211293
14362,(PbTe)0.15(Ag2Te)0.85,500,-0.00015734787586054518,0.5700044538788963,0.6857260165800299,26331.119564342716
10974,Nb0.99Ti0.01CoSn0.96Sb0.04,500,-0.00013559858385976556,6.476947862760554,0.11758092331747833,81082.01096079787
14329,Cu2.05Zn0.95SnSe4,500,0.00018881617281468847,0.7277683124676817,0.26491217529862504,9387.034135992275
13496,K2Bi8Se7S6,500,-0.00015811915949841003,0.540537458412522,0.3138710524362451,14239.135267963276
13506,K2Bi8Se7S6,500,-0.000159293329027846,0.5405101311899492,0.31326074816357136,14228.508316077989
12434,Zr0.98Nb0.02NiSn,500,-0.00016325159988881898,8.029808544707342,0.25391413772246185,133951.88487596792
12426,TiCoSn0.05Sb0.95,500,0.00019368991556931183,8.686418961234489,0.10269076377048143,44960.0481980918
435,Pb0.995Ga0.005Se1,500,-0.00011699941016460812,2.0982464107243413,0.3511669242541272,107654.63769287826
12433,Zr0.99Nb0.01NiSn,500,-0.00020284223255020845,7.632597502559952,0.2480471337335844,79514.5900890012
14338,Yb0.36Co4Sb12,500,-0.00012921603088377409,3.5782674406877013,0.6181850902172861,251749.43395092108
13495,K2Bi8Se9S4,500,-0.00016400386041868793,0.4887306513353586,0.33959575011823073,12825.644441739367
178,Pb1.001Se1Cl0.002,500,-0.0001983245293545485,1.6271101602850222,0.4950446585417786,40957.97408563411
10120,MnAl0.0063Ge0.0054Si1.7883,500,0.00017533640102197512,2.5324401936673064,0.2462547487633721,40570.43196568424
10966,NbCoSn,500,-0.00010366735540254588,6.549626796794089,0.03986642749552597,39846.83087676809
10970,NbCoSn0.92Sb0.08,500,-0.00010213725754484571,6.7014170243455276,0.124043306083297,148733.80995449278
14339,Yb0.40Co4Sb12,500,-0.00012936115750567992,3.5363796687349285,0.6241387769418235,251993.72772614803
10118,Mn0.85Cr0.1Ru0.05Si1.74,500,0.00014560064877473182,2.4777208876167016,0.1702541678551278,39797.290915788144
13497,K2Bi8Se5S8,500,-0.0002426092725144272,0.4391873045493897,0.31270118825113336,4749.308899406717
5980,Nd0.4Yb0.6Fe3CoSb12,500,0.0001261141902661959,1.8912269315419696,0.5557716453048196,125240.07355873313
4490,Cu3Sn0.05Sb0.95S4,500,0.0003112353711511988,2.3178358607256784,0.07427288344771484,3435.2472480140973
12429,Ti0.99Nb0.01NiSn ,500,-0.00020043130782855731,5.639300084290102,0.3018381497437471,79161.08567307387
10968,NbCoSn0.96Sb0.04,500,-0.00010955177973210565,7.262544998851287,0.09412767427908204,109660.19769162877
235,Pb0.98Na0.02S1,500,0.00013420860736129963,1.9345000828801344,0.24157276832903396,51890.276492401434
14347,Cu2HgSnTe4,500,5.549110637708115e-05,2.167191275540984,0.1017481020471373,149567.79577188732
5979,Nd0.3Yb0.7Fe3CoSb12,500,0.00012112149102801046,1.9146199942183475,0.5266747036702307,128757.08378314669
12428,TiNiSn ,500,-0.0002809566053165353,5.132651418962748,0.1716759002638315,19470.467463097157
14348,Cu2HgSnSe0.8Te3.2 ,500,8.907942826691933e-05,1.5180263728679706,0.18186484702474964,64434.350565431865
10117,MnSi1.73,500,0.000181508822231582,2.605291017233885,0.2282669250762166,37037.364070863514
10116,MnSi1.733,500,0.00016865443225930126,2.4059205210130203,0.2037135969444809,34461.626505279964
10969,NbCoSn0.94Sb0.06,500,-0.00011016447484439094,6.4405534828056,0.13832396605983813,144251.8267491541
4492,Cu3Sn0.15Sb0.85S4,500,0.00011493252922591379,2.626113460571468,0.0806738471925631,31999.495120362648
5978,Nd0.3Yb0.7Fe3CoSb12,500,0.0001069507704418713,2.3354844582765395,0.324178916888224,135568.43512608533
12431,Ti0.95Nb0.05NiSn,500,-0.0001196841035449208,6.030263963502955,0.28552235984896585,228501.16703331488
10967,NbCoSn0.98Sb0.02,500,-0.00011935719240831505,6.9849813834733485,0.10538127113400103,91420.27524659084
4491,Cu3Sn0.1Sb0.9S4,500,0.00011641854501742512,2.3136243509029426,0.03546720226838381,11351.715928725404
10279,Si0.8Ge0.2,500,0.00014041573593786774,2.5858954938176097,0.19533222141958545,47546.047973786015
12430,Ti0.98Nb0.02NiSn,500,-0.00016678252529688805,6.010700617017269,0.3136019527767516,127626.27236629796
12427,TiCoSn0.1Sb0.9,500,0.00020197090330316712,7.9150704257663715,0.1775096480999193,63607.55456355004
10972,Nb0.99Ti0.01CoSn,500,-0.0001378283410558125,5.5400645696539765,0.048755018156438484,24671.294012447182
12424,TiCoSn0.1Sb0.9,500,0.00026344186017990533,7.241995731739043,0.09562585630031474,19147.367683049117
10122,MnSI1.75,500,0.00016545434563218866,2.2425435702800938,0.3317916797421772,54360.07156849209
14356,Tl4ZrTe4,500,9.125237659525228e-05,0.4778499523405424,0.06829706759266603,6374.7839294566065
2306,Ba8Ga16.6Ge28.7,500,0.00013503702872461236,1.4921446584477311,0.3564471085630352,53971.13064615391
14330,Cu2.1Zn0.9SnSe4,500,0.00018138897237169487,0.7289918505262178,0.3159823417596874,11789.69740459663
6607,LaOBiSSe,500,-0.00012306249024647708,1.3475084265159518,0.220229794997455,39936.84427016614
10973,Nb0.99Ti0.01CoSn0.98Sb0.02,500,-0.0001485183583575846,6.063852613208183,0.10936724495411776,55554.508453016984
6606,LaOBiSSe,500,-0.00013511773571314788,0.8899303390259409,0.24778170313960315,23975.8988875264
15050,Y1−xB28.5C4,500,-1.630189084056175e-05,1.5485147221487288,9.708851465136276e-09,0.11314548536613205
335,Sn1Mn0.05Te1,500,9.292513514645824e-05,3.8613802024774873,0.2760476482683153,203026.5851693248
13494,K2Bi8Se13,500,-0.00024039692325517618,0.3305844750621413,0.4090307461177451,4817.19013322924
14336,Yb0.30Co4Sb12,500,-0.00014373477298262102,3.439249121144605,0.7103539904617147,225906.02361911855
2307,Ba8Ga16.6Ge29.8,500,9.21559544486859e-05,1.6412663287821596,0.21590373056775647,83575.01133790294
14337,Yb0.33Co4Sb12,500,-0.00013370886444651121,3.4312660904115737,0.6530822578916702,239268.9714897197
16438,Zn4Sb3,500,0.00015525065237072868,0.7155336362696174,0.7215930755846063,41820.49049937845
15429,CuFeSe2,500,0.00011547022039603765,1.1274944150752628,0.11990651889735092,19165.77488029442
14335,Yb0.33Co4Sb12.2,500,-0.00015988589196841896,3.367414488650911,0.7036061910152009,178121.93436167098
322,Pb0.985Ga0.015Se1,500,-7.174119724818532e-05,3.031599116821813,0.10087910001867928,118840.84371197467
10115,MnSi1.73,500,0.00016995136847984296,2.59987274904174,0.2589861692878908,42741.277282138384
5981,Ns0.5Yb0.5Fe3CoSb12,500,0.0001336340615191582,1.853067740941668,0.5730877233254087,111857.707710274
10971,NbCoSn0.9Sb0.1,500,-0.00010356887333433154,6.2238977471094215,0.1512363999972324,165930.22410873586
11011,Fe3Si,500,-1.1468948808723188e-05,20.274559626286248,0.004047461931299746,1083332.978251264
5987,YbCd1.6Zn0.4Sb2,500,0.00014193336718293698,1.4342422862883648,0.6177024658910737,81699.18998016012
15070,CaB6:SrB6=75:25,500,-9.301441613588628e-05,13.045149990967,0.08404992612165074,218655.7905734224
12505,B4C,500,0.0003105159046442634,18.426224124506145,0.0016899998483871472,601.6506807004396
13527,Nd0.95Sr0.05OZnSb,500,0.00012634401876944934,1.8245275783831785,0.06642569606751167,12563.011963964873
4520,CoSb2.7Te0.3,500,-0.00010394524928644372,4.49692577322916,0.16576100590195253,140017.89136401966
237,Pb1.002Se1Cl0.004,500,-0.00017280852070003874,1.6502363994856661,0.6820107962065662,75376.69693431864