sampleid,composition,Temperature,Seebeck coefficient,Thermal conductivity,ZT,Electrical conductivity
14509,Cu1.85Ag0.15Sn0.95In0.05Se3,450,0.00012160405398068292,1.056319767496606,0.13568625063366802,18510.50185758012
14510,Cu1.85Ag0.15Sn0.9In0.1Se3,450,9.915898354403571e-05,1.4869312032769573,0.15214667820969352,49469.982997983934
14511,Cu1.85Ag0.15Sn0.85In0.15Se3,450,8.877248481439547e-05,1.4121854025920737,0.19668130804857573,67386.95104992649
5160,Co4Sb11.625Te0.375,450,-0.00016338360820333258,2.0222352549876352,0.4522740388013554,76476.91326190527
14347,Cu2HgSnTe4,450,4.996364131143865e-05,2.2741740944296382,0.08235266690344364,166213.73062617495
14348,Cu2HgSnSe0.8Te3.2 ,450,8.116694529438498e-05,1.5959484569758775,0.1459756440635102,69518.44993985939
14349,Cu2HgSnSe3.2Te0.8,450,0.000181090194213044,0.5614468532525635,0.2841576918280126,8991.708496614938
14360,(PbTe)0.1(Ag2Te)0.9,450,-0.00012664451716467518,0.6095891283829753,0.5805471535356214,40820.85156253421
14329,Cu2.05Zn0.95SnSe4,450,0.00017447684566210522,0.7631122345830985,0.2017730924833329,9812.265046128448
14330,Cu2.1Zn0.9SnSe4,450,0.00016649378499214055,0.7584651437637142,0.23777946874962294,12152.748349270061
14335,Yb0.33Co4Sb12.2,450,-0.00015379244559683814,3.388180992749525,0.6163618366704888,188521.8279706237
14336,Yb0.30Co4Sb12,450,-0.00013754737826404082,3.452954737504487,0.6155279229273225,238690.3637330273
14337,Yb0.33Co4Sb12,450,-0.00012762059769042534,3.432748336917688,0.5617806117754556,251977.12623767505
14338,Yb0.36Co4Sb12,450,-0.00012307728355246103,3.572825846843005,0.5302920528741617,264435.2637824851
14339,Yb0.40Co4Sb12,450,-0.00012335659528849051,3.5282896752839137,0.5359799947155166,264763.4492449491
14361,(PbTe)0.1(Ag1.9996Te)0.9,450,-0.00013978157130472093,0.5022848584801279,0.7345367588065896,37010.40413138111
5161,Sn0.25Co4Sb11.625Te0.375,450,-0.0001863301250681932,4.303844285302038,0.350830524552456,92429.4727397958
14368,Ag2Te,450,0.00011789830304252204,0.484356065814344,0.0975066310508088,6960.979005925263
5140,Sr0.19Co3.98Ni0.02Sb12,450,-0.00015579355956609782,4.134983661979969,0.3481807661278405,135317.3354737843
5033,In0.25Co3.8Ni0.2Sb12,450,-0.0001889056812234152,2.4527299082939087,0.3466663677672888,49049.72118857375
5031,In0.25Co3.95Ni0.05Sb12,450,-0.00020319029250154928,2.917318330303215,0.5616543302340906,85079.26257300659
5032,In0.25Co3.9Ni0.1Sb12,450,-0.00021549934556480845,2.8801490632909936,0.4131775572853851,52079.55850892883
5093,CoSb3,450,-0.00015720442734846037,0.6720517546556656,0.0013045930276959644,78.83802078683368
5092,CoSb3,450,-0.0003793399370885007,7.871607872905539,0.03954355071227132,4806.948453394824
14773,Mo3Sb7,450,2.6754578703673464e-05,6.211744378350142,0.03082988051326072,521167.721926662
5023,Co3FeSb12,450,8.454762386432849e-05,2.916398678519518,0.0711774289022068,55164.338512530754
14774,Mo2.9Fe0.1Sb7,450,3.149052294446856e-05,6.382951623694365,0.038489410076820635,485668.0841279231
14775,Mo2.8Fe0.2Sb7,450,3.457366019009799e-05,5.7966993286579545,0.048103348421720524,475357.54019787646
14776,Mo2.7Fe0.3Sb7,450,3.637550187636385e-05,5.496360710684917,0.051989949368182325,432320.6264698138
14777,Mo2.6Fe0.4Sb7,450,4.263752247864492e-05,5.02282997522021,0.07257144614339289,405739.2326625703
14778,Mo2.55Fe0.45Sb7,450,4.5425802742379885e-05,4.7261766415597,0.07930226122806053,357489.56547372736
14779,Mo2.6Fe0.4Sb7,450,4.324865876724311e-05,5.042893092204302,0.07489870405893947,412712.72521441657
14780,Mo2.6Fe0.4Sb6.75Te0.25 ,450,4.903898811822029e-05,4.598950796833146,0.09414732553082276,356352.5758553415
14781,Mo2.6Fe0.4Sb6.5Te0.5,450,5.432316931067771e-05,4.619484325144977,0.1000621173098228,319843.3163142421
14783,Mo2.6Fe0.4Sb6Te ,450,6.469638151921629e-05,4.872727193222122,0.08673071797329038,219892.3779772694
14782,Mo2.6Fe0.4Sb6.25Te0.75,450,5.709006518360664e-05,4.219575208411808,0.10001258062658122,256123.40186863532
5024,Sn0.1Co3FeSb12,450,8.782321654487761e-05,2.1506006260137167,0.0869410273354898,47074.700034587804
14729,Cu1.99Fe0.01Se,450,9.030234501171926e-05,1.1138355768286892,0.3308203044434607,94635.27468873886
5027,Sn0.4Co3FeSb12,450,0.00011269253289571003,1.4633393879438306,0.16236961095154626,38623.184787613805
14731,Cu1.99In0.01Se,450,0.000156120740128426,1.1223320018181384,0.2915705722522265,26908.929285220947
14732,Cu1.99Sm0.01Se,450,0.00011056418106367685,0.9626970945384292,0.38237802407926463,58722.3075830913
14733,Cu2Se,450,0.00012071507281864922,0.9321748248149052,0.38851176979054025,47193.8859469884
5026,Sn0.3Co3FeSb12,450,0.00011817439148345402,1.4253632319615614,0.17875052936077007,36869.50603358352
5025,Sn0.2Co3FeSb12,450,0.00010911065774185876,1.606058411012027,0.14984733017999813,40404.26415137409
5117,Co0.9Ni0.1Sb3,450,-4.964212470590462e-05,10.465380786773745,0.006595862933482191,64713.58292792696
5116,Co0.925Ni0.075Sb3,450,-0.00010651677157788067,6.3843633251920044,0.04862648299558848,52087.342994471524
5115,Co0.95Ni0.05Sb3,450,-0.00012123550757551436,6.751582600084336,0.03977446420910955,36829.51061618103
14535,Ag3SbSeTe2,450,6.593621486931548e-05,0.5644788083010134,0.006503135553086768,1876.3329717862118
14536,Cu0.1Ag2.9SbSeTe2,450,0.00010077921804069764,0.5540712316658387,0.028860031970614368,3498.7098440067352
14537,Cu0.2Ag2.8SbSeTe2,450,0.0001174160542493131,0.5126183995985111,0.07675377116938452,6342.002894401171
14538,Cu0.2Ag2.8SbSeTe2,450,0.0002115007417865568,0.4597227501962431,0.07583908274160216,1732.0194480797159
14539,Cu0.2Ag2.8SbSeTe2,450,0.00012066292540121787,0.4823302783943421,0.0431306593247812,3175.1950468139826
5139,Sr0.22Co4Sb12,450,-0.00014561178134316064,4.400676809864788,0.3189206781629499,139174.23754414727
5132,Co0.95Mn0.05Sb3,450,0.00015425662148002632,3.858636801774522,0.09254240976932056,30357.128585886647
14546,La3Te4,450,-5.0807246800599376e-05,2.0334887067538263,0.0643888212928575,96953.92299503704
14547,La3Te3.9Pb0.1,450,-5.4301634152878634e-05,1.579828246338708,0.06547569843111256,81681.80579598567
14548,La3Te3.8Pb0.2,450,-5.677465463954204e-05,1.575686166031804,0.08424329530461587,87848.35089879598
14549,La3Te3.7Pb0.3,450,-4.5920800607881606e-05,2.0563916313006545,0.0667349482224851,159574.35092765893
14550,La3Te3.6Pb0.4,450,-4.7321584003128385e-05,2.873965940539129,0.05881712688856028,170118.3992634399
5130,Co0.98Mn0.02Sb3,450,0.00016110269712534575,1.935669142738224,0.1305583689555644,18785.30129647961
5129,Co0.99Mn0.01Sb3,450,0.0001593221997117268,2.3448129915006186,0.12319629165875927,21488.78383447047
5128,CoSb3,450,0.00016754745793862378,3.3086842770039806,0.09807323690706382,22734.81874213108
5094,CoSb3,450,-0.0002036798504187079,0.5552611972071699,2.639417200972847e-05,0.7850489178548244
5114,Co0.975Ni0.025Sb3,450,-0.00015698364880653126,6.670932197939331,0.03825081039882798,20493.527963548266
13885,Mo3Sb6Te,450,4.845065896228139e-05,4.425041977840351,0.07173065129087514,269728.1454085157
7909,La2.90S4,450,-3.3115324886050954e-05,1.8669004987526223,0.03509946029429447,132785.62321735802
10104,MnSi1.78,450,0.00016080379304846565,2.4026728955496828,0.4958939957870368,102394.91927111645
9258,Mg2Si0.8Sn0.2 ,450,-0.0003960225874039245,2.260005248502304,0.0632798847604631,2176.8097623112108
10206,Fe0.95Cr0.05Si1.958Ge0.042,450,0.00021204116811392705,8.31190616067634,0.02016095971401755,8282.45230105645
7908,La2Ca0.2S3,450,-2.9917064400576196e-05,1.4929379548234536,0.02301870728342502,85324.19961410522
10258,Hf0.5Zr0.5NiSn0.98Sb0.02,450,-0.00010545165525094652,3.515724942276279,0.1988947587628765,136993.8062928592
8213, Bi2Sr2Co2Ox,450,0.00012135536142037561,0.9099727668845312,0.006185862767206788,917.396075050514
10232,Fe0.97Co0.03Si2,450,-0.0002363285827408554,6.628387732924111,0.034310170336625284,9048.691131795811
11939,GdPdBi,450,8.137916467882903e-05,4.812618706883071,0.07777723321574538,121693.33392082172
10207,Fe0.98Co0.02Si2,450,-0.00023327012674737583,3.9692423129160828,0.030531228993254982,4949.041943571805
10259,HfNiSn0.98Sb0.02,450,-9.462517166786324e-05,7.48479181726004,0.14195065441244722,243425.6642184248
11029,NiZrSn,450,-0.00018460338616777016,8.852040667029062,0.055938325601510464,29784.49862936287
10105,MnAl0.0063Ge0.027Si1.7667,450,0.0001542531527319318,2.4943715280515195,0.20234756306709228,47138.79829082936
10394,NaxCoO2,450,8.665043257970126e-05,1.904702794938096,1.1467389228576845e-09,0.0006464542405694929
9355,Bi0.5Sb1.5Te3,450,0.00017041764618250935,1.0009484159615776,0.2702080175509283,22010.110795747318
9356,Mg2Si0.9Sb0.1,450,-0.00010989760651653632,2.686263101360047,0.13243783372570486,63929.70467447664
7910,La8/3Ca1/3S4,450,-2.9479912260307612e-05,1.5452433081397956,0.032230558385169465,127350.25358824893
10161,MnSi1.73Cr0.01,450,0.00016338152602312714,2.348076959272232,0.14966564575722202,29256.073658866873
10897,Fe2VTa0.12Al0.88,450,-8.466543124370835e-05,9.96519832295991,0.1254621639791213,388307.14766098524
9693,Ga0.05SnBi1.95Te4,450,8.261987689363167e-05,1.524398460475479,0.15539172731558587,90271.31167953883
9450,Pb3Bi2S6,450,-8.540030980844175e-05,0.7784016280598574,0.07748096352061706,17110.746137469054
10145,MnSi1.75,450,0.00015106777997207869,3.7000864003970375,0.09136738434360836,32919.016350946185
10204,Fe0.94Co0.06Si2.00,450,-0.000162776862845979,3.6954696559775226,0.061566649646068936,18177.59334353065
9483,(CoGe2)0.15(GeTe)12Sb2Te3,450,0.00020258975843440356,1.4182776794286938,0.5111686283012571,36245.90501655361
8214,Bi1.8Sr2Co2Ox,450,0.00012513032533180445,0.6852583255524431,0.011017613728018023,1095.0091594120092
10609,Zn0.98Al0.02O,450,-4.7341035376967434e-05,20.365691057255003,0.003054633332115197,70077.90345356765
11064,Al2CrCoFeNi + 5 wt.% Sc,450,-1.5401939685523858e-05,12.601332536490391,0.006519303403166437,731271.3470465273
7906,La2.84S4,450,-3.140417173584523e-05,1.6453947736395604,0.02420697783212237,89747.73250978939
10256,Hf0.75Zr0.25NiSn0.98Sb0.02 ,450,-0.00011285783977332849,3.3696395970187183,0.19363376939494253,110324.49548963127
9426,(Mg2Si0.9375Sb0.0625)0.4(Mg2Sn)0.6,450,-0.00022061806779408912,2.1916952472220244,0.4049671549770605,46813.08203116989
9692,Ga0.03SnBi1.97Te4,450,9.033257471801783e-05,1.1731151508071362,0.17122724092096128,58561.43307819753
10144,MnSi1.74,450,0.00010054877885938638,4.385855244674288,0.06808930582815935,65639.77524491068
11050,9.104 × 10−3 mol % PbI2-doped PbTe,450,-0.0001982561073908047,1.6835109742274574,0.7686024003121094,68587.65918824336
9694,Ga0.07SnBi1.93Te4,450,8.714316667234967e-05,1.030682962591206,0.17488642988209954,55438.311316616346
10160,MnSi1.705272Ge0.027728,450,0.00015230357456833232,2.3381734538979204,0.161652066931942,36209.72954427907
10892,Bi0.5 Sb1.5 Te3 ,450,0.0001739348391868233,0.9682966351831874,0.4291884045910153,27773.41094581894
10123,MnSi1.74,450,0.0001335951065811124,3.0192599015185184,0.13171526691136626,49515.70879630018
10257,Hf0.6Zr0.4NiSn0.98Sb0.02,450,-0.00011011689168837376,4.228710108445329,0.22621673584858884,169699.95926684767
7907,La2.53Ca0.47S4,450,-2.941481323552312e-05,1.228066398073339,0.02799329383003096,88293.99080311015
10205,FeSi2,450,-0.0005246301852230181,13.69570455826365,0.0002585458708174951,28.58926050808895
10098,Mn0.65r0.2Ru0.15Si1.74,450,0.00013061947226173002,2.374459823687645,0.13262120221703605,41015.633412274066
10184,(FeSi2)0.745(TiB2)0.255,450,-2.421033201185536e-05,8.491560888638345,0.003746606299057808,120617.84994304199
10231,FeAl0.06Si1.95,450,0.00020203042599106863,6.950963499945162,0.03254518644451166,12316.454277482493
11090,PbTe 2GPa ,450,-0.00030370544369702496,1.7162437051823054,0.261897661719249,10829.113653629145
9449,Pb3Bi2S6,450,-9.977593266251876e-05,0.8273798799848486,0.08890861182940962,15265.521192307075
11014,Fe2.2V0.8Si,450,-5.043584677809483e-05,9.259575721021447,0.0424192131504116,362393.44018822507
11091,PbTe 4GPa,450,-0.00022256377705780352,2.060951196978265,0.3399683734428877,31432.921325860767
10138,MnSi1.73Al0.0025,450,0.00016298828867051176,2.807232775314985,0.1745440356233507,40988.13192913582
11308,Cu3SbSe4,450,0.00035821809390434225,2.2485144584175374,0.09886268589128208,3542.2612347664412
11089,PbTe 0 GPa,450,0.00018668463588414919,1.9361152422069932,0.03414308569236905,4215.065271249519
10084,MnSi1.73,450,0.0001670508661969463,2.399240518513765,0.13745424416510202,26261.6472602452
11015,Fe2.08V0.92Si,450,-5.229583192908624e-05,9.670651681680317,0.05169183635796321,395405.23149657884
10181,Fe0.95Co0.05Si2,450,-0.00015322270054039496,4.3052530833583464,0.04197434479078392,17105.031304372205
11092,EuCd2Sb2,450,0.00027255797245033883,1.0293020639527608,0.3241624047078723,9095.475231609946
10213,Fe0.94Co0.06Si2.00,450,-0.0001685786611738964,3.648908433793389,0.06653135505230325,17599.159883378263
10388,NaxCoO2,450,0.0001337891435464778,1.4989755916235574,5.05905015715186e-09,0.0009414760689649377
11012,Fe2.8V0.2Si,450,1.4511149801764801e-05,12.826097105238011,0.004549241887100096,563239.9106262103
10136,Re0.04Mn0.96Si1.8,450,0.00015007558985367025,2.2814860385654283,0.21572600080516816,48561.006125390115
10230,(FeSi2)0.875(TiB2)0.125,450,-0.0001344263655116888,6.049638677148902,0.034742982259824286,25847.2952583756
10095,MnSi1.733,450,0.00016304101367981173,2.2798204129988227,0.21380357218564505,40748.28617349562
10096,MnSi1.8,450,0.00015972122316453298,2.6163983270124347,0.15665079307173738,35702.505281418154
11093,CaCd2Sb2,450,0.0002401093274462647,0.8265845887487202,0.014341145494762857,399.76875339557694
10896,Fe2VTa0.08Al0.92,450,-0.00011170323071610239,11.041617559694087,0.18284399724643194,369453.24671382416
10137,MnSi1.733,450,0.00016063223891875432,2.2096165911774044,0.20134853373694755,38316.643156640486
1449,Bi2Te2.1Se0.9,450,-0.00019192648961801896,1.1193344224636999,0.5535756919180574,37164.08316477361
12044,Zr0.98Ce0.02NiSn0.98Sb0.02,450,-0.00010301200097478199,5.455328118717984,0.18412334617141746,207828.53831161853
1448,Bi2Te2.1Se0.9,450,-0.00018781773007115797,0.7462427746937147,0.4869209633064085,22702.93317442253
9646,Mg2Si,450,-0.00047283003076228615,3.912780391359693,0.009658424417100495,300.98527279765176
11025,NiZrSn0.98Sb0.02,450,-5.327808686931463e-05,13.747540879271696,0.028451044035919092,320577.6987138491
10141,MnAl0.0054Si1.7946,450,0.00015631699793999,2.5309392872927607,0.17748861883911551,40853.31585215505
10142,MnSi1.733,450,0.00015496524476300768,2.370006754527473,0.12558415690254907,27542.497025606757
11027,NiZrSn0.95Sb0.05,450,-4.483916866821783e-05,12.759873748472419,0.01833234710820773,264131.9412386326
11026,NiZrSn0.97Sb0.03,450,-5.460552291684329e-05,11.841944094181805,0.027833495849238443,272915.8402641159
9358,Mg2Si0.975Sb0.025,450,-9.721133320962409e-05,4.787619721140042,0.14824365918412954,138380.44136423428
10106,MnSi1.78,450,0.00014846082377527832,2.2146654746879806,0.2270780186296,50704.55617499842
9439,Pb5Bi6Se14,450,-0.0001405095462251558,0.5143033373495656,0.20059263407312605,11236.67888682852
10107,MnSi1.73,450,0.00014765290542892968,2.976265472268764,0.12010368294627227,36436.06625399225
10182,(FeSi2)0.8(TiB2)0.2,450,-6.0826700256283396e-05,7.52461208344799,0.012645481924644071,57150.294443813
10097,MnSi1.733,450,0.00016207601675107477,2.175151420275311,0.2051402325941116,37747.684414026946
10236,FeAl0.06Si1.95,450,0.00018930457589935726,7.002802633245794,0.030088589186460332,13065.889274570307
10392,NaxCoO2,450,8.520237306517859e-05,1.9782138191353005,1.9029981313539403e-08,0.011523799607434116
11024,NiZrSn0.99Sb0.01,450,-6.094040088357854e-05,14.059121351851163,0.029135703680313506,246439.69108136735
11938,LaPdBi,450,6.867170122824139e-05,4.996938617588794,0.07944354246519314,178643.72735307118
9679,In0.07Sn0.93Bi2Te4,450,9.254273066676294e-05,0.6806459118410421,0.17716862501781805,30347.004340030766
10545,Ca0.8Dy0.10Yb0.10MnO3,450,-5.834456502484481e-05,2.5966712072884395,0.023251005527878885,39843.10321981642
10196,Fe0.95Co0.05Si1.946Ge0.054,450,-0.0001417016094086858,5.050116026309634,0.03370349311645419,18837.1064150487
7904,La2.27Ca0.73S4,450,-4.559651598123112e-05,1.0971203089067942,0.049768369727108346,58362.224404410284
8962,CrSi2,450,0.00013854252625939746,9.876449555561104,0.06521312575504748,81593.0892494322
10879,Bi0.5 Sb1.5 Te3,450,0.0001736725708044621,1.4335044868784426,0.3883409225648601,37419.632712445404
12379,Fe2V0.92W0.08Al,450,-9.23892555257074e-05,7.307505590108165,0.11008034832023326,205472.49999834152
9677,In0.03Sn0.97Bi2Te4,450,9.423716766418921e-05,1.0736570808871524,0.18194624475870474,45556.26666224865
12380,Fe2V0.90W0.10Al,450,-9.713081243486896e-05,6.299272342489173,0.15718066361071398,224617.9619919833
10250,Hf0.75Zr0.25NiSn0.96Sb0.04,450,-9.018831377205288e-05,5.1576091231180285,0.17289136595666998,245027.90739213262
9678,In0.05Sn0.95Bi2Te4,450,7.06413472793659e-05,1.1305907287767276,0.052895965672950414,28549.842845109684
10544,Ca0.84Dy0.08Yb0.08MnO3,450,-7.062770331138438e-05,2.140390753169104,0.036821460272246316,38030.11658887103
10191,Fe0.95Co0.05Si2,450,-0.00016845635599973266,4.264398649011463,0.04894513788446148,16344.815994647475
9683,Ga0.07Sn0.93Bi2Te4,450,9.085800905458872e-05,1.0659806335540392,0.1784820114934607,47794.610786637386
10197,FeAl0.06Si1.95,450,0.0002393462927562391,4.256173484034099,0.035315081324320916,5830.604836245732
10152,Mn0.95Cr0.05Si1.74,450,0.00014181900892265057,2.696114627391382,0.17388092257268373,51797.50995182235
9423,(Mg2Si0.9875Sb0.0125)0.4(Mg2Sn)0.6,450,-0.00033201849708840695,1.1840453332871999,0.4092788067525336,9417.7165187364
10153,MnAl0.0063Ge0.0108Si1.7829,450,0.00014690294837738798,2.6892554297730515,0.17343452449275562,48027.95220732182
10101,MnAl0.0063Ge0.063Si1.7307,450,0.00013032906745777937,2.4760774825919283,0.1515439293320134,49091.65631792848
9681,Ga0.03Sn0.97Bi2Te4,450,8.856998669329075e-05,1.0941551523456559,0.1942829163936794,59152.24295032232
9616,Mg2Si0.4Sn0.6,450,-0.00015955147605984442,3.3545169931102707,0.5856367966519094,162799.8652941031
9682,Ga0.05Sn0.95Bi2Te4,450,8.919460318719991e-05,1.098650258495812,0.15866072097209638,54870.65793869
10190,Fe0.98Co0.02Si2,450,-0.0002423577796030716,6.121687434517898,0.017703166597843347,4100.111468523872
10251,Hf0.75Zr0.25NiSn0.94Sb0.06,450,-6.534894453438083e-05,5.745371037004527,0.10184335549079374,299561.60863131995
10155,MnSi1.73Cr0.02,450,0.0001594922374351705,2.468947593084665,0.1372423571484966,29601.13919013032
7903,La2.76S4,450,-4.445754835366826e-05,1.1712159325645568,0.048765098139749656,64215.89523210889
9485,(GeTe)12Sb2Te3,450,0.00018217909571597825,1.5262587702191268,0.4670155358707303,44000.389642964656
10789,Ba0.7K0.3Cu2Se2,450,5.906300916612812e-05,2.362824959896789,0.11159452917842952,160695.67656816618
9671,SnBi4Te7,450,9.25663998118963e-05,0.8911831214524802,0.14763137665285475,28595.160690418285
9670,SnBi2Te4,450,9.359035591402132e-05,1.0710114054593325,0.2515139193563448,65566.79279845394
10244,AgSbTe2,450,0.00026527128584516896,0.3307509629579465,1.1152036898448372,11101.078415062906
9672,SnBi6Te10,450,8.590124280059071e-05,0.8654876931390076,0.10594956589141917,22739.35234628848
10543,Ca0.90Dy0.05Yb0.05MnO3,450,-9.20760104690567e-05,2.1645188379020874,0.05742855242983089,34348.52625171134
12375,Fe2VAl,450,-1.4062600588796298e-05,15.195531101156385,0.0009941145716536343,147979.54386014628
12376,Fe2V0.98W0.02Al,450,-6.929052084184014e-05,10.395551781100991,0.031178415317272543,150360.3630207472
12377,Fe2V0.96W0.04Al,450,-8.049672061373402e-05,9.892473356498476,0.04694363695543586,168803.18977097602
12378,Fe2V0.94W0.06Al,450,-9.41425996723942e-05,8.429637384890652,0.08219755060708582,187325.43528815475
12195,Bi0.5Sb1.5Te3,450,0.00020522417142642308,1.3558642681016555,0.5911462567127965,37799.70294771348
10086,MnSi1.73Al0.001,450,0.00016333144524234417,2.5638052559279063,0.16381805502635324,34986.030886076405
10541,CaMnO3,450,-0.0003682699714354028,3.4795146973514437,0.01736914084477419,1132.1903131432798
10249,Hf0.75Zr0.25NiSn0.98Sb0.02,450,-0.00011252598408157236,3.4181521984435834,0.19386970643864407,107886.98537190759