sampleid,composition,Temperature,Seebeck coefficient,Thermal conductivity,ZT,Electrical conductivity
6001,Yb0.98Zn2Sb2,600,9.193618949028076e-05,2.698319227880366,0.35920181314443705,168970.4868159965
297,Pb1.005Se1,600,-0.00015381637457116307,1.9415533743993416,0.4337745620413903,59327.63303763723
14268,Cu2.1Zn0.9Sn0.95In0.05Se4,600,0.0001244589381246612,2.1877677918508565,0.1748094390429138,36449.29122360154
13528,Nd0.92Sr0.08OZnSb,600,0.00013547699684193724,1.7706419694351059,0.1113047310350845,16569.510191082372
9439,Pb5Bi6Se14,600,-0.00018464284917846469,0.473665205568841,0.348797503452183,8041.171588637409
12675,TiNi(1+y)Sn. Here y is 0.25,600,-0.00010930791213060349,5.943578038688843,0.1902699242020105,150707.38363475163
16424,Ag0.5In0.35Pb5Sn4Te10,600,0.00014835607772451282,1.284632535859341,0.6648765679403315,64422.90270217626
6398,YbZn2P2,600,0.00016814430845463836,1.5466028834440522,0.06696957835772821,5825.174299583886
5160,Co4Sb11.625Te0.375,600,-0.00018530858388507895,2.1853449247082577,0.6251739735823033,67905.83489100191
15776,Pb0.999TeIn0.001?,600,0.00029997775401630793,1.2215987947835003,0.5891455456837535,13823.459687490227
12413,NbCoSn0.96Sb0.04,600,-0.0001225823196639824,7.1154467656468405,0.1117605601468265,93426.08357150713
9611,Mg2Si0.4Sn0.6,600,-0.0002177446351109163,2.8748832124916164,0.8219358381165542,80530.83421596714
9609,Mg2Si0.6Sn0.4,600,-0.00013826074493195647,4.462885933750838,0.3597299238799828,139972.69270906155
10148,Zr3Mn4Si6,600,1.811728941608521e-05,22.722709322946773,0.0012647304168647933,145921.86843042885
12663,NbCo(1+x)Sb here x is 0.5,600,-0.00013702805526099416,3.8887760699809424,0.1223913925521626,34624.309682996565
15084,La2.99Te4,600,-5.039463821337007e-05,2.7615363907940824,0.0792207093137284,144992.50420747907
13529,Nd0.93Sr0.07OZnSb,600,0.0001342002724685681,1.7148415719746497,0.11828690701771155,17350.425074432445
17149,Zn0.97Cd0.03Sb,600,0.00022820671256345605,1.4149929150947045,0.783492981368231,35510.446452779055
10244,AgSbTe2,600,0.0002543401608425172,0.3651129162515507,1.5061766620146382,14038.356070473696
12661,NbCo(1+x)Sb here x is 0.3,600,-0.00011314347272171164,4.6355213114821066,0.21814698696642626,125831.28485570988
17151,Zn0.97Cd0.03Sb,600,0.00021977597931280808,1.3037010322536708,0.7917025311138925,35614.622433608616
11065,Al2CrCoFeNi + 0.3 wt.% Sc,600,-1.8366788250904002e-05,13.248683638992972,0.00999326599467817,705691.2091862217
1932,(CoSi)0.95(SiO2)0.05,600,-8.595647612654141e-05,9.431696181828464,0.11596108379591075,280709.69160382857
4618,La0.3Co3.68Ni0.32Sb11.84Te0.16,600,-0.00017112995864636315,2.2718561253573846,0.5524559620989301,68955.91406341242
12662,NbCo(1+x)Sb here x is 0.4,600,-0.00015518342058665446,3.778270672003441,0.1973339536231589,45631.88962329919
17150,Zn0.97Cd0.03Sb,600,0.0001958206257375794,1.3064073766188486,0.7204647420447287,34557.599509997664
12667,ZrCo(1-x)Pd(x)Bi here x is 0.6,600,-0.00014231295222700326,7.858318291343857,0.13249113689715308,71310.2172261436
15085,La3Te3.80Sb0.20,600,-5.77987229217007e-05,2.6271158030817907,0.1115344320363433,143944.99480885206
13564,Cu2Se,600,0.00016173869624291326,1.1495772986695376,0.4652669913692998,37345.45820805004
12668,ZrCo(1-x)Pd(x)Bi here x is 0.09,600,-0.00013224485167435325,7.127747607836125,0.12752818565565865,76609.76618734899
476,FeSi2,600,0.0001768697671182834,9.018644782710982,0.0013165156310687846,603.8659258764397
15467,MgFe2O4,600,-0.00013969922646128616,4.538351106368016,0.001717708754253102,539.2179837696624
10133,MnSi1.74,600,0.00015515503160822296,2.5578917809649497,0.21405269281846626,37907.04087077261
17148,Zn0.97Cd0.03Sb,600,0.0002255553408631603,1.3187226209115512,0.820919572649499,34722.700014977185
16447,(Zn0.99Cd0.01)4Sb3,600,0.00017247331123089208,0.8532080270590956,0.863590003287223,41384.42847124963
12666,ZrCo(1-x)Pd(x)Bi here x is 0.3,600,-0.00016343496374381246,8.840184513701132,0.14531967071705426,67787.14408190282
5161,Sn0.25Co4Sb11.625Te0.375,600,-0.0002079503191723166,3.9150038657995614,0.532379839745992,80658.07344772454
11066,Cross Reference for comparison,600,-1.7389859016363933e-05,12.458278936010409,0.009274834721520984,619292.4303030972
10902,Sr2ErRuO6,600,-0.00010714009191138766,0.2724795602843214,2.1350485476955027e-05,0.8446687069174948
15778,Pb0.995TeIn0.005?,600,0.00025979218570798757,1.3052178061507251,0.6686400053976426,21948.03995654704
14991, Cu:Co:Sn:Se = 1.94:0.15:0.71:3,600,0.00018209261596663628,0.7594711465836187,0.31295195820756283,11882.557774653797
6005,Yb1.05Zn2Sb2,600,0.0002158451464024708,1.2752576397201087,0.6241850032665937,24644.898445928724
10654,LaCo0.85Ni0.15O3,600,4.001197570225451e-05,2.560899396813611,0.00938546746240758,29055.020164808877
14984,Cu2ZnGe0.9In0.1Se4,600,0.00016434690331183066,1.43720082019817,0.2365884338048769,19826.49166868991
10151,TiMnSi2,600,1.7068534548654384e-05,8.980189212584788,0.0012243007806342285,62896.99433835085
6392,Ca5In2Sb6,600,0.00035330824397245404,0.7344684897845605,0.13659235453669102,1339.493982312526
9614,Mg2Si0.4Sn0.6,600,-0.00018573196226466288,3.13579391793183,0.7779080117121321,113118.09272702863
16493,(Mn0.95Cr0.05)Sir,600,0.0001710383828128287,2.6092262464060334,0.23138687229409435,34917.66340053605
35,Fe0.98Nb0.02Si2,600,0.00010376240062786419,8.357389017052201,0.0013476628768744484,1814.353775344175
12414,NbCoSn0.94Sb0.06,600,-0.0001250368432724493,6.216747049319088,0.1778427427447541,118233.98515527211
14982,Cu2ZnGe0.925In0.075Se4,600,0.00018226892064868917,1.487842433569195,0.1881877598356144,13646.34474888853
9486,(CoGe2)0.2(GeTe)17Sb2Te3,600,0.00023664410855426396,1.4863961860483053,1.3615837941672817,58521.69498478247
10152,Mn0.95Cr0.05Si1.74,600,0.00017594109305049912,2.749798832462229,0.3139118159074031,46475.360221801435
9615,Mg2Si0.4Sn0.6,600,-0.00018277998778235268,3.0314865455823288,0.8195477474466989,121604.08194788393
15089,La2.74Te4,600,-0.00013457036697672706,1.079188302406414,0.31794042713994825,26529.983734194262
13527,Nd0.95Sr0.05OZnSb,600,0.00014191992475393855,1.6117140020591882,0.10128167777070847,12558.773656660833
14983,Cu2ZnGe0.95In0.05Se4,600,0.00017263719608886412,1.810397354601846,0.20100173288959775,18986.62594372003
1931,(CoSi)0.975(SiO2)0.025,600,-9.012812657554604e-05,12.152744704718687,0.16446222716354442,447296.06041757826
14270,Cu2.1Zn0.9Sn0.9In0.1Se4,600,0.00010784576196815103,2.150529721608595,0.16373986186053124,42558.24038456037
14121,CuInTe2 ,600,0.0002501735728346717,40.51381263036778,0.01239603426575534,14562.439853362783
14990, Cu:Co:Sn:Se = 1.92:0.16:0.69:3,600,0.00013515640602639834,0.7168324976452606,0.4154521584698425,26836.27966682876
6002,Yb0.99Zn2Sb2,600,0.00013504288827589702,1.9908418990067465,0.5981565850673347,97372.7655560222
15088,La3Te3.40Sb0.60,600,-0.0001077225146091518,1.5699132529325943,0.10360603919664137,20137.349376905557
6396,Sr5In2Sb6,600,0.00028446367511268965,0.7711879177226428,0.0032238573251442302,51.20721383859314
10653,LaCo0.90Ni0.10O3,600,4.400072165783379e-05,2.6500815593154727,0.01442592218576514,28556.33760359625
9613,Mg2Si0.4Sn0.6,600,-0.000199860034143348,2.6539780988296107,0.7561937412569347,83135.76464668848
36,Fe0.98Ti0.02Si2,600,0.00018910149198058488,8.05459644434324,0.0016710608532345677,676.4600031016969
14122, CuIn0.75Ga0.25Te2 ,600,0.00025358394846362306,37.692759467753646,0.014476249600913628,14363.961256512637
6004,Yb1.025Zn2Sb2,600,0.0002157106965397557,1.4820009686223168,0.6624689631895733,32643.972405337787
4619,Co0.92Ni0.08Sb2.96Te0.04,600,-0.00014677640571636861,3.98419311533775,0.328868137058283,96353.02908283334
6393,Ca3.75Sr1.25In2Sb6,600,0.0003460358946405225,0.671200231801756,0.04182232211948446,390.7209410490107
15782,0.10 wt% PbI2+0.3 at% In,600,0.00018847881930874756,1.3097172145709706,0.949579413334952,67083.8913655823
14269,Cu2.1Zn0.9Sn0.925In0.075Se4,600,9.970145995618149e-05,2.1455156339789214,0.18673996348915267,55932.81985543362
15781,0.08 wt% PbI2+0.3 at% In,600,0.00023037706610792402,1.1620104350927456,0.8888236031187507,34040.08592306404
14989,Cu2SnSe3,600,0.00013511030412454957,1.1204616168318016,0.2520109288383027,24159.090370186383
15780,0.05 wt% PbI2+0.3 at% In,600,0.0002489250768349723,1.1487193816815209,0.8238433908953584,25785.708926954823
6003,YbZn2Sb2,600,0.00022042043873694438,1.6224160920363024,0.6613339100342083,36052.50012227286
14123,CuIn0.65Ga0.35Te2,600,0.00021431711219682464,35.89750504223015,0.015952805357953945,23080.569747273334
16492,MnSir,600,0.0001998995566971431,3.0056238730558595,0.17568615169055046,22685.47120590677
10150,MnSi1.73Cr0.03,600,0.00017850813813860049,2.4590026378498617,0.17499403726678106,22506.862333498724
6394,Ca2.5Sr2.5In2Sb6,600,0.0003790672130095242,0.6934737235504036,0.046139527404643436,371.1243558589939
16494,(Mn0.9Cr0.1)Sir,600,0.0001629582177428248,2.7219564529707507,0.2417075537403021,40466.98813617268
2382,Ba8Cu4.5Si6Ge35.5,600,-8.554089011206074e-05,1.3205181538284023,0.210607051759844,63257.57902967031
13851,Ge0.87Sb0.09Te,600,0.00014850906285871542,2.8361949711718437,0.5789810377055722,119758.4740912092
13125,Yb9Mn4.2Sb9,600,0.00011282495597890766,0.6103229041371216,0.3039125119770429,20292.495953237936
9688,In0.03SnBi1.97Te4,600,6.535632788678556e-05,1.4242318958784643,0.0748721067745709,42407.599435510776
10201,Fe0.98Co0.02Si2,600,-0.00024730812837727605,3.9717513159531737,0.042315323371655215,4579.854494425323
13854,Ge0.86Sb0.09Te,600,0.0002037292346337232,1.6829056748123763,1.1117734507676569,66318.57811428525
16339,Ge3.5Sn0.5SbTe5,600,0.0001816276882877887,1.3520347355063862,0.4540001937891059,31011.91081997365
13124,Yb9Mn4.2Sb9,600,0.0001246356862153575,0.627143568596984,0.34091637645132905,19923.190445552882
13852,Ge0.87Sb0.09Te,600,0.00017853264517143423,2.3598777789584324,0.8947492143714126,106871.56064065995
13853,Ge0.86Sb0.09Te,600,0.00017546874607153232,2.3171024036976178,0.7940857554044183,95438.47720031752
13129,Yb9Mn1.2ZnSb9,600,6.744019126661404e-05,1.1984942254564843,0.11821700892366067,51919.09045541539
10120,MnAl0.0063Ge0.0054Si1.7883,600,0.0002061211260529952,2.5566347562897827,0.3559282639054792,35697.26159151238
2307,Ba8Ga16.6Ge29.8,600,0.00011986222429485569,1.5444460870683372,0.3633385186718385,66915.79662330907
10202,FeAl0.05Si2,600,0.00022984939015044614,7.187815023892778,0.07849583570584881,17799.40757379897
13128,Yb9Mn2.2Zn2Sb9,600,4.466671946666634e-05,1.5180783629230887,0.07978725611811711,101183.18734119581
9689,In0.05SnBi1.95Te4,600,7.800356963975182e-05,1.4889327852822856,0.15589751098622545,66217.08179585602
14336,Yb0.30Co4Sb12,600,-0.00015610956241978138,3.411837888424841,0.9000061255304992,204048.23289650143
4835,Yb0.6Co4Sb12,600,-0.0001337401419896923,3.3589024097647884,0.7077372450939228,226271.70058257921
10085,MnSi1.68,600,0.00019413895715308764,2.5298217603599005,0.29336573100729674,32818.79792129187
335,Sn1Mn0.05Te1,600,0.00011911708826825796,3.2117865985716505,0.4366574980130408,145875.744245707
13123,CaAl1.9Zb0.1Sb6,600,0.00014616489178710792,1.1251171358378769,0.2338055392008545,19806.2668475688
322,Pb0.985Ga0.015Se1,600,-9.419472938036852e-05,2.4507800415788408,0.18609375742552295,85670.5754116152
15217,InTe,600,0.000290680008060963,0.4978401753152265,0.1976671262392076,1759.9310324515336
13117,Ca3Al0.95Zn0.05Sb3,600,0.0002278659002119789,0.8516017007890768,0.2063256321737169,4622.196125674838
16785,(GeTe)0.85(AgSbTe2)0.15,600,0.0001807072209152056,1.6003333706014382,1.0211988975903488,81527.21606614586
16233,AgIn5Te8,600,0.00012322679027629838,0.7673724839212502,0.002616092379904471,221.3121737929093
5981,Ns0.5Yb0.5Fe3CoSb12,600,0.00014618620882392983,1.9170857830504688,0.7337459074577888,105103.53921630944
6244,Yb14MnSb11,600,0.00010133353616517918,0.8141800567018294,0.2958735773073319,31913.212593458218
16783,Ge0.87Pb0.13Te,600,0.00017748494403626458,1.5738029523978316,1.0298168813620932,73507.5655161773
10200,(FeSi2)0.995Cu0.005,600,-0.0003413770342408118,12.195397389901846,0.0066176388672361175,1154.1949436439672
14335,Yb0.33Co4Sb12.2,600,-0.00017207278471158066,3.325881480453683,0.8780948997046254,160422.38465091796
13122,Ca5Ga1.7Zn0.3Sb6,600,9.358714408236424e-05,1.4820124223866868,0.16937500354296922,49793.66527551965
1346,Si0.8Ge0.2B0.016 (CrSi2)0.091,600,0.00026796864128229066,2.880693356555313,0.2722241906061891,18201.38966980055
13859,GeSnSb2Te5,600,6.475044637220991e-05,2.8374176287665893,0.0905187655085657,102099.84937000039
10115,MnSi1.73,600,0.00019690239168814342,2.6152010016352834,0.3508903063457193,37104.4590346611
5142,Sr0.21Co3.92Ni0.08Sb12,600,-0.00015940411987533853,3.788191739095873,0.6100458119425876,141699.51580390948
13119,Ca5Ga1.95Zn0.05Sb6,600,0.00016087891348301806,1.0643065953486197,0.25940678579659304,15901.988869387571
13861,Ge0.6Sn0.4Sb2Te4,600,6.848893563812447e-05,1.7826760166567297,0.16789060991343224,106342.47016347607
16784,(GeTe)0.8(AgSbTe2)0.2,600,0.00020686258614356,1.3543462900776655,1.337511873805713,69188.44042001365
5897,CoSb3,600,0.00016718759563010569,5.073028247687647,0.06454407034101102,19361.81250426633
13120,Ca5Ga1.9Zn0.1Sb6,600,0.00013611362397918808,1.2425915663138103,0.2543465823108773,26924.247605868703
13860,Ge1.3Sn0.7Sb2Te5,600,6.572044631014947e-05,1.9891268076572493,0.14193856378372238,108945.83162911289
4832,Ba0.24Yb0.12Co4SB11.85,600,-0.000152509592518094,3.586865673002084,0.8402679585849941,215498.54424542407
4833,Ba0.14Eu0.13Ci4Sb12.05,600,-0.00015102816284758483,3.924088825285492,0.82813481521399,238359.35623652407
13130,Yb9Mn4.2Sb9,600,0.00012476790789367806,0.6046370870115505,0.3120041042073399,20197.520285074774
10226,,600,-0.00017901083411516242,3.6511738085083563,0.11795855125232445,19096.835853539968
13140,Cu2Cd0.3Zn0.7SnSe4,600,0.00027509220691325986,1.1803842405386265,0.08405745574484293,1960.1969145647824
16337,GeBi5.7In0.3Te10,600,-6.440322528399332e-05,1.1608781376173567,0.05619735713691381,30089.78897540912
9693,Ga0.05SnBi1.95Te4,600,8.466634973336447e-05,1.9481094135824968,0.15383276065584844,75578.16170382078
16758,AgPb18SbTe20,600,-0.00021659982547563415,0.6842263603047881,0.08540534290027528,2242.560663592987
13826,PbSe,600,-0.0002816706991140931,1.005206902434569,0.4252863754370604,9423.880737132831
16757,Ag0.8Pb22.5SbTe12S8,600,-0.0002513612596155532,0.8447432812897829,0.7359426803911701,17137.375076709148
16622,Zn4Sb3,600,0.00018967616920942504,0.5924310136883009,1.2298532168745992e-06,0.033753147485766265
13141,Cu2Cd0.45Zn0.55SnSe4,600,0.0002642685557384314,1.3937204582782252,0.12924608211070834,3987.142328128852
13142,Cu2Cd0.4Zn0.6SnSe4,600,0.00024437343669078264,1.2525131068651514,0.1651049952547946,5351.654325852007
16759,AgPb19SbTe20,600,-0.00028462468302987217,0.7719555059199532,0.2295419966882266,3201.5996798126002
10970,NbCoSn0.92Sb0.08,600,-0.00011616545710300395,6.41790585439095,0.1618267511035943,122281.8531925824
13138,Cu2Cd0.7Zn0.3SnSe4,600,0.0003233591287277601,1.2974501724738912,0.08845486018397375,1578.468089080767
16760,AgPb20SbTe20,600,-0.00028011986007536944,0.8330705227721762,0.8802338421197695,14547.447908155997
9692,Ga0.03SnBi1.97Te4,600,7.833486814606561e-05,1.6880331357554912,0.1095845926399358,50935.061513487635
13139,Cu2Cd0.5Zn0.5SnSe4,600,0.0003115467934339694,1.2872483225478306,0.09885970660148873,2015.546993909047
14338,Yb0.36Co4Sb12,600,-0.0001414935255464002,3.5891506283770918,0.7939711649035348,229709.5845137611
178,Pb1.001Se1Cl0.002,600,-0.00023422904240697403,1.3510071944105508,0.6028563218054603,24742.22460606485
2385,Ba8Cu4.5Si6Ge35.5,600,-8.924845688815979e-05,1.0267236752761022,0.1786755364781314,41241.48257307291
16247,Ru0.85Fe0.15Al1.95Si0.05,600,-0.00010880429168923913,7.916669931305993,0.026489058061998253,30775.03547314164
10205,FeSi2,600,-0.0003712540084979008,11.498804361578538,0.006786583331173018,943.6486386681077
13146,Cu2ZnSnSe4,600,0.00018758915539693653,1.623062030299104,0.1417882235934983,9832.87437036454
16755,Ag0.8Pb22.5SbTe18S2,600,-0.00027382774011214885,0.9487124373291648,0.6687039181600563,15366.811794790394
16754,Ag0.8Pb22.5SbTe18.4S1.6,600,-0.0002554227127022388,0.9987054684657142,0.6740886112807191,18319.183311308898
5861,CaZn2Sb2,600,0.00017681259917404722,1.5835091898049944,0.3479485441848342,28732.9632459305
1344,Si0.8Ge0.2B0.016 ,600,0.00019332090670245056,2.480121062785784,0.3143473577044313,34767.526769321616
13145,Cu2Cd0.1Zn0.9SnSe4,600,0.00021210248327007645,1.5225241290954241,0.10066948277774132,5145.938922769376
16336,GeBi6Te10,600,-5.939242824438343e-05,1.2401791675761369,0.052161117859958216,34592.351594066495
13143,Cu2Cd0.35Zn0.65SnSe4,600,0.00026651413145509527,1.406047312548783,0.13268772276565713,4051.825847839201
16756,Ag0.8Pb22.5SbTe16S4,600,-0.00026693639575308423,0.8748936174512764,0.6747580791802819,14563.883153923518
7907,La2.53Ca0.47S4,600,-4.5530419768833286e-05,1.3619877541088394,0.06281103748566505,68778.80259639381
13144,Cu2Cd0.2Zn0.8SnSe4,600,0.00024790459588459255,1.4593343251249755,0.12080920142273935,4308.979003817641
13823,Cu2.05Zn0.95GeSe4,600,0.00013915823649998492,1.221858543202171,0.21958287107339095,27604.89364988586
10204,Fe0.94Co0.06Si2.00,600,-0.00017655884308667816,3.8164363527498977,0.1163050842983306,20195.018977279
16338,Ge4SbTe5,600,0.00021953335818116265,1.3368956242484098,0.5846587348005998,26109.863896731942
10203,(Fe0.95Cr0.05Si2)0.995u0.005,600,0.00027238071774416826,10.282402699720738,0.019891967265357184,4594.818639396674
9690,In0.07SnBi1.93Te4,600,6.0827074884249476e-05,1.635035930542155,0.05222922957722237,38601.44836816267
6242,Sr3AlSb3,600,0.00044001692068903965,0.7399310869262704,0.04286533078630976,273.02816361783533
15215,In0.997Te,600,0.00022966109452259918,0.4163363577603243,0.8718373192168094,10798.129085299499
7905,La2Ca0.1S3,600,-7.04763649699236e-05,1.4405562782135564,0.10203943240428162,49324.19674936424
4838,Yb0.6Co4Sb12,600,-0.00013840165684689528,3.2188396503472947,0.7023546331365059,186326.2964318258
12034,Hf0.25Zr0.25Ti0.5NiSn0.998Sb0.002 ,600,-0.00020645465909391712,2.6520653939434347,0.7586278147624579,72038.02376798003
16438,Zn4Sb3,600,0.0001699132857512722,0.6885088588330222,0.9422792742052633,37427.52632134351
7906,La2.84S4,600,-4.5567365642336896e-05,1.7734782576271235,0.05343106699789271,76060.75318505513
1345,Si0.8Ge0.2B0.016 (CrSi2)0.091,600,0.0002774021013494688,2.7723196598096784,0.3490065594999117,20955.891959582066
5141,Sr0.23Co3.95Ni0.05Sb12,600,-0.00015066669395103052,3.851415608654663,0.6208741812233136,165103.51202160268
14337,Yb0.33Co4Sb12,600,-0.0001458853979586829,3.428301597399348,0.8356855501240996,217345.83471444433
13147,Cu2.086Cd0.950Ge0.906Se4.058,600,0.000416206122775216,0.6734870401701032,0.09568088376259926,576.9093275728869
10199,FeAl0.10Si2,600,0.0001874589409040053,8.946440012023594,0.059132628431873314,25090.76307203019
13680,Tl7.95Pb2.05Te6,600,0.0002501586644847485,0.36481373686581775,0.7657286671627841,7132.7617668967005
16217,Tl7.9Sn2.1Te6,600,0.0001385563172141129,0.618124450975411,0.4685909835124271,23307.08693469359
544,Ba24Ga9Ge91,600,-6.201351552630259e-05,2.2944002041446705,0.1335046692651891,131679.88245193506
16821,AgSbTe2,600,0.00026500785895170354,0.5023191602439532,1.5476830641673418,18365.840794963064
16820,AgSbTe2,600,0.0002767909555672729,0.5629330123331043,1.1329064627526135,13935.455004849757
13888,Mo3Sb4.8Te2.2,600,0.000113992704171337,3.762394990445553,0.1592499296962623,68329.53240672115
10972,Nb0.99Ti0.01CoSn,600,-0.00014841391170621992,5.262401746754475,0.06440801265503282,23408.47106301337
10114,MnSi1.7321335Ge0.0008665,600,0.00017112283136262214,2.275330723972865,0.1758648303699518,22774.89395794
16219,Tl7.8Sn2.2Te6,600,0.00018233655849839004,0.4768653582402037,0.5734897222889428,13779.546260518422
15388,Mn0.96Ag0.04Te2,600,0.0002042698714187892,0.7431999447743132,0.36136473455446294,8775.570446432097
13885,Mo3Sb6Te,600,6.4437670564238e-05,4.528498714739006,0.14265886668925715,237857.13246472605