sampleid,composition,Temperature,Seebeck coefficient,Thermal conductivity,ZT,Electrical conductivity
4479,Cey(Fe3.6Ru0.4)4Sb12,550,0.00011216624285278764,2.600607911156366,0.43265020006370025,175279.97617321234
10160,MnSi1.705272Ge0.027728,550,0.00016540818386257672,2.3799999474789835,0.2036399305970475,32207.959531061435
12816,Cu2ZnSn0.90In0.10Se4,550,0.00016472690904042672,1.8454809274469293,0.17769127656520106,18006.734588451924
12815,Cu2ZnSn0.95In0.05Se4,550,0.0001758931057770006,1.79384417896022,0.17009864587428558,14482.678983263311
6333,Ca1Cd2Sb2,550,0.0002165923700532425,0.7238528275691956,0.020726411551563004,653.1193660518928
17036,Zn4Sb3,550,0.0001852099458148712,0.6464386172752035,1.0271352608200692,34565.13688040788
6350,CaMnZnP2,550,0.00021069848564837624,1.7096892180676695,0.0003744906396417166,26.22241111473488
489,Fe0.98Mn0.02Si2,550,0.0002595794639574669,7.643302023735909,0.03403143744376464,7018.720730238958
17059,(GeTe)90(Ag0.8Sb1.2Te2.2)10,550,0.00016071922635941643,1.885703808719548,0.8652477158423254,107171.08048568283
17060,(GeTe)90(AgSb6Te2)10,550,0.00013212048533864598,2.341694286912996,0.6629412469947403,147057.23886813154
14958,Cu0.005TiSe2,550,5.543025057036901e-05,2.4850865395249158,0.02281471057732616,27803.076663962573
6351,CaMnZn0.8Cu0.2P2,550,6.671050129591528e-05,2.0963135122923915,0.0011396252727381047,976.0390815852843
17061,(Ag2Te)54(Sb2Te3)46,550,0.0002973422874088569,0.5227236544657532,0.6774553936103497,7180.60993603471
17062,(Ag2Te)52(Sb2Te3)48,550,0.00029232763543971804,0.5455494816800521,0.9969458275459336,11878.380869575778
10100,MnAl0.0063Ge0.018Si1.7757,550,0.00018294159279503221,2.62649332808825,0.2849536444309949,40659.58262526679
17063,(Ag2Te)50(Sb2Te3)50,550,0.0002896864410477641,0.5376367429460014,1.0623943123211192,12418.942307180972
17064,(Ag2Te)48(Sb2Te3)52,550,0.0002575772353935927,0.5829333712524468,1.1046891954538158,17626.686977655158
17065, (Ag2Te)46(Sb2Te3)54,550,0.00022044527980985142,0.5857080068377687,1.0463812065224434,23088.68338075053
17058,(GeTe)90(Ag0.7Sb1.3Te2.3)10,550,0.00017036376253120559,1.8100455114394047,0.8760946897262587,91277.20671548891
12754,Silicon based based Ni containing clathrate in Ba8Ni3.8SixGe42.2−x. Ni01A to Ni04A for x changing from 0 to 42.2 in the nominal composition,550,-2.917991172629684e-05,2.1918004290184,0.009623414441318028,52088.92004969331
6345,Mg3Bi1.7Sb0.3,550,8.94035535426684e-05,1.9011966056636536,0.1675463179427018,60103.676805607385
490,Fe0.98Mn0.02Si2,550,0.0001304379754102843,5.164854709876295,0.018993061357136302,10482.920500416742
10158,MnSi1.729534Ge0.003466,550,0.00016546037583920782,2.097317158569653,0.17997937090235686,25068.949582693607
6346,Mg3Bi2,550,5.625010248743697e-05,3.9504577689939326,0.07616549709209645,172130.49171222447
17053,Ag0.4Pb22.5SbTe20,550,-0.0002403940078824172,0.8607444706209905,0.9173159497784588,20536.425321522594
6347,Ca0.99Na0.01Zn2P2,550,0.00027714526982074026,2.089955330086388,5.608634410731488e-05,2.7747030089410267
17055,Ag0.8Pb22.5SbTe20,550,-0.00023451536781212597,1.2255533945628712,0.6477795213805498,22566.767359225174
17057,(GeTe)90(Ag0.6Sb1.4Te1.8)10,550,0.00016869365840717896,1.8711573824414656,0.8187822871658373,92076.96846853565
17054,Ag0.6Pb22.5SbTe20,550,-0.00023569308836694298,0.9203422528293312,0.8753275826475198,22195.43220122636
12824,In3.9Ga0.1Se2.95,550,-0.00037778191531030134,0.8936668426797033,0.22097701643470752,2227.224725768548
4478,Cey(Fe3.7Ru0.3)4Sb12,550,0.0001170995229140066,2.484058524490793,0.5446923770798369,170901.04877075256
16995,(Zn0.985Ge0.015)4Sb3,550,0.00018048205643686566,0.7700675254219461,0.8661035257572092,31699.603244302383
10096,MnSi1.8,550,0.00018924779426682475,2.654219679588322,0.23894425575540665,32196.533652379323
12853,Yb14MnSb11,550,9.639682797990333e-05,0.8586887886219969,0.1849977156041097,34360.926609570866
17004,Zn4Sb3,550,0.00017388792074057714,0.8199580964079471,0.5516528083850416,26217.06460214425
17005,(Zn0.999Gd0.001)4Sb3,550,0.000174274363971545,0.7922804120898896,0.6442249269067714,29641.350665261503
12851,Re3Ge0.6As6.4,550,-0.00010591242608467777,4.29743928370701,0.16825779984131278,101415.61207801675
14940,Tl2Te,550,0.00018140418853257063,0.3546861785104785,0.14271316527901826,2772.319377453808
4476,Cey(Fe3.875Ru0.125)4Sb12,550,0.0001191160030400593,2.6744426011344187,0.5110171949762623,172914.83135167626
17006,(Zn0.998Gd0.002)4Sb3,550,0.00017382329637857688,0.6619894432872846,0.9820619919650718,36778.30217564108
17007,(Zn0.997Gd0.003)4Sb3,550,0.0001725466294511368,0.7484747599860155,0.7180206396818086,31324.379431472167
17008,Zn4Sb3,550,0.0001730839751769433,1.0467311390196747,0.4854036621012273,28915.82143716169
4710,Ca0.15Co3.98Ni0.02Sb11.80,550,-0.00017139964393117957,4.312753021153319,0.3324288862104575,82619.5326016918
498,Fe0.98Co0.02Si2-SiC-5mass%Cu,550,-0.00012734600463241467,5.002391948795868,0.025291307385414158,14184.553161879368
14938,CuTl9Te5,550,0.00017639396432320395,0.4831090824321846,0.2934492745708473,7674.789288327454
499,Fe0.98Co0.02Si2-SiC-2mass%Cu-3mass%Si,550,-0.0002937707120306049,4.6573464275131835,0.07609853619142062,7466.8111082144205
16994,(Zn0.99Ge0.01)4Sb3,550,0.00018175204372649015,0.7580147021242529,0.9213671373793316,35128.51629470891
10093,MnSi1.73,550,0.00018525437967823925,2.670392721324505,0.28132204492501445,37384.80267376743
507,Fe0.95Co0.05Si2-1wt%Er2O3,550,-0.0001965148220638639,2.176084388967946,0.3062331491092397,31374.341496506466
14936,(GeTe)1x(AgSbTe2)x,550,0.00015263622291868107,1.621403058264976,0.709151336549557,89732.96184920927
12858,Yb14Mn0.9Zn0.1Sb11,550,5.363362447824239e-05,1.0115485366909474,0.08836077293368377,58653.37598073005
506,Fe0.95Co0.05Si2-10wt%SmO2,550,-0.00019942831288217788,3.8407616544419683,0.16426766210976795,28842.514079610475
10094,MnSi1.75,550,0.00017513670736435586,2.400120125779205,0.29353494494419136,41761.46629879267
17009,(Zn0.005Nb0.995)4Sb3,550,0.00017077708756006938,0.725382275070308,0.8058784302797264,32316.608444055088
4475,Cey(Fe3.925Ru0.075)4Sb12,550,0.00012239491401556528,2.746356142490581,0.5377371325796202,175116.38247053305
12857,Yb14Mn0.7Zn0.3Sb11,550,8.189835019774202e-05,0.8795510563772044,0.20594736745812026,49134.06562644854
505,Fe0.95Co0.05Si2-1wt%SmO2,550,-0.00020923690012677632,2.857768861879773,0.2955152801319907,35072.586708329014
16991,Zn4Sb3,550,0.00017440468435845526,0.7386120978259709,0.8047852360433496,32654.219331974247
504,Fe0.95Co0.05Si2,550,-0.0002156771334952262,5.225258001932055,0.08898683298641685,18174.505136813917
10095,MnSi1.733,550,0.00017798990141730498,2.2847185844697453,0.28457155840515497,37313.912780730316
16992,(Zn0.9975Ge0.0025)4Sb3,550,0.0001948047290891925,0.7216598296591503,1.0630690571229389,35052.2714521802
12855,Yb14Mn0.7Zn0.3Sb11,550,8.498072640067328e-05,0.8717768852560029,0.1942013477208483,42513.59942393428
16993,(Zn0.995Ge0.005)4Sb3,550,0.00017984723636420538,0.743131278968218,0.9075276554931888,34440.77937242938
4711,Ca0.18Co3.97Ni0.03Sb12.40,550,-0.00017375984304025908,4.459893283062115,0.5314056795376161,140663.01665845248
17010,(Zn0.01Nb0.99)4Sb3,550,0.0002251278306608828,0.8030697731670301,0.44921146872123335,12056.752846939471
6330,YbZn1.8Mn0.2Sb2,550,0.00011407505646032915,1.7301890123826194,0.15718231526891946,34932.4955275816
4477,Cey(Fe3.8Ru0.2)4Sb12,550,0.00011825988582855193,2.612308672068281,0.5302075615017805,173796.04016387824
10161,MnSi1.73Cr0.01,550,0.00018291065474934,2.2763725148172256,0.21088931675885567,26088.986908434246
6331,YbZn1.7Mn0.3Sb2,550,0.0001380805298256288,1.8059486075847455,0.20472272123139504,32618.611453848156
17035,Zn4Sb3,550,0.00015123159360377414,0.6710221898936549,0.4022678007460739,18576.2894062019
12826,In3.9Pb0.1Se2.95,550,-0.00019758596036902016,0.9446277982823268,0.15851581239176246,5645.656382437186
6329,YbZn1.85Mn0.15Sb2,550,0.00013932755178506465,1.8168705257745332,0.3791992213830452,58561.12058752058
496,Fe0.98Co0.02Si2-Sic-2mass%Cu,550,-0.00023890249475444527,4.61198685467237,0.047968267451327436,7047.547863363809
495,Fe0.98Co0.02Si2-SiC-Cu2mass%,550,-0.00025334261449214585,4.46255185351542,0.04819658524534346,6092.848214115692
494,Fe0.98Co0.02Si2-SiC,550,-0.00034964905237639006,3.83536788603039,0.0846418437256439,4827.971990064301
9484,(GeTe)12Sb2Te3,550,0.0002159428871800947,1.5234695193451204,0.7406986976728129,45850.77974984841
493,Fe0.98Co0.02Si2,550,-0.00017762787645755201,5.029861828609008,0.0218763073402996,6340.815754303641
12844,Yb14MnSn11,550,9.124027734621544e-05,0.8248317124042455,0.1959489434030184,34192.67416608112
6326,YbZn2Sb2,550,9.628902219226595e-05,2.3778874342765097,0.2575468345109452,106889.56575004164
6327,YbZn1.95Mn0.05Sb2,550,0.00013027090391791498,1.8502108448711796,0.3479203968070691,61950.05768333934
6328,YbZn1.9Mn0.1Sb2,550,0.00011655154068721877,1.8845130244640425,0.3332914402448271,74685.18860512674
4709,Ca0.20Co4Sb12.46,550,-0.00016250838718259372,3.839627524306238,0.1882897253073536,44617.3480651426
492,Fe0.98Mn0.02Si2,550,0.0001254073837066925,6.2860897810247005,0.016043870494971718,11659.524053120307
10097,MnSi1.733,550,0.0001761964410033967,2.1936089551111992,0.2683033374819898,34468.97207750565
17150,Zn0.97Cd0.03Sb,550,0.00019133811822319124,1.384181551322058,0.6344897330197622,35291.724247683545
17066, (Ag2Te)44(Sb2Te3)56,550,0.00019429651068322902,0.7765193259580432,0.7637257872110501,28522.893080140464
35,Fe0.98Nb0.02Si2,550,0.0001076540518127094,8.467551763951207,0.0011201756197808171,1503.894874301729
15089,La2.74Te4,550,-0.00012175215486273372,1.0979552485485171,0.2602433425608635,29042.58225013864
14984,Cu2ZnGe0.9In0.1Se4,550,0.00015048611825566274,1.5579960589479884,0.18813836262593134,19568.411282224537
10151,TiMnSi2,550,1.6185324467256992e-05,8.433464941687518,0.0010331209532804231,60471.634017023425
14985,Tl2Te,550,0.00019090896992167119,0.3604319310792892,0.13978385481310412,2510.1235699935714
6392,Ca5In2Sb6,550,0.00034589452486419385,0.7860608225787318,0.09943312758664176,1187.783222874437
6393,Ca3.75Sr1.25In2Sb6,550,0.0003556896026875453,0.699687682012891,0.02993036584723777,300.9616945330041
6394,Ca2.5Sr2.5In2Sb6,550,0.00040714903839959637,0.7145519113104939,0.03197588667229778,250.60334579458384
4619,Co0.92Ni0.08Sb2.96Te0.04,550,-0.00014139350087741964,4.001080463488534,0.2861917968096075,96551.66689161674
14983,Cu2ZnGe0.95In0.05Se4,550,0.00015869552641530968,1.981466321673206,0.1598422920931028,18499.58722166472
12706,Cu2Ga0.05Sn0.95Se3,550,0.00012351733843806047,1.5693220230321885,0.24062173124761554,39554.7379973638
10153,MnAl0.0063Ge0.0108Si1.7829,550,0.00017324035063364632,2.724332665842397,0.2604033737357316,42977.97478550724
14980,Cu2ZnGeSe4,550,0.00015174205693795482,1.1248598415407405,0.1084556004921044,7737.3488697285275
10101,MnAl0.0063Ge0.063Si1.7307,550,0.00015216012887065696,2.507250969379664,0.21967359673540168,43252.50294771775
14982,Cu2ZnGe0.925In0.075Se4,550,0.00016841163226980892,1.6171217922673096,0.14816797761143352,12383.892863059682
10152,Mn0.95Cr0.05Si1.74,550,0.0001645670650078829,2.7319040974386133,0.26079192122250444,47831.17462818366
15090,La3Te3.35Sb0.65,550,-0.00011786524520399912,1.288324145056544,0.06314758031322631,11432.194898119473
10150,MnSi1.73Cr0.03,550,0.0001700596957194431,2.4999617260730016,0.13998324754337554,22001.07693090595
12673,TiNi(1+y)Sn. Here y is 0.02,550,-0.00019556849585425983,4.728279889381824,0.2559449971472065,46831.9034818835
15086,La3Te3.65Sb0.35,550,-6.866062772412493e-05,2.024465084370401,0.0922403161333558,62427.65610497798
12671,TiNi(1+y)Sn. Here y is 0,550,-0.0002168069509847451,5.169219420380629,0.2494271683257913,42767.7528751532
12668,ZrCo(1-x)Pd(x)Bi here x is 0.09,550,-0.00012537157702555328,7.453471931521572,0.10724947427380116,78395.17054806824
476,FeSi2,550,0.0001959733622576434,9.312130720363113,0.0012671479878456641,532.4481573132324
15085,La3Te3.80Sb0.20,550,-5.410722056937106e-05,2.6200582772674847,0.09147004364802122,154020.63593148516
12666,ZrCo(1-x)Pd(x)Bi here x is 0.3,550,-0.0001551511502035727,9.374404374779726,0.12192438941325087,69480.36847504479
17148,Zn0.97Cd0.03Sb,550,0.0002256231081323105,1.3805336444802203,0.7427285945631867,34586.31238932917
17149,Zn0.97Cd0.03Sb,550,0.00022287249097448388,1.4978187821336355,0.7009618424441785,37489.95660994128
15084,La2.99Te4,550,-4.737027552201394e-05,2.7463852918998293,0.06395505758019357,152358.46431351485
12663,NbCo(1+x)Sb here x is 0.5,550,-0.00013075955820761215,3.936992208616077,0.10239965520825466,34482.762582130825
12674,TiNi(1+y)Sn. Here y is 0.075,550,-0.00016700022875629342,4.5432870873655125,0.2960941320395488,84413.03727916478
15087,La3Te3.35Bi0.65,550,-0.00010132017290913831,1.7250616866758526,0.08246821761820207,20694.19476687456
14989,Cu2SnSe3,550,0.00012279842268842728,1.234100810518094,0.20581110945275471,27075.427206183307
14990, Cu:Co:Sn:Se = 1.92:0.16:0.69:3,550,0.0001226269267553728,0.7785895038239865,0.3424519079366057,29776.038856854502
9482,(CoGe2)0.15(GeTe)12Sb2Te3,550,0.000221216310389296,1.4743129368186298,0.7756944953829851,39625.99034772736
36,Fe0.98Ti0.02Si2,550,0.00022026972167662895,8.297245854128459,0.0016163802846807962,602.3577411610165
14991, Cu:Co:Sn:Se = 1.94:0.15:0.71:3,550,0.00016848517420917468,0.8159964560803971,0.2620715443790831,12852.623792417728
6396,Sr5In2Sb6,550,0.0002996991728921008,0.8084739167860615,0.002179332277103996,35.66610517468752
6398,YbZn2P2,550,0.00015968898223355142,1.6105952966230657,0.05928945164219052,6554.098689986451
14992,Cu:Co:Sn:Se = 1.82:0.16:0.76:3,550,0.00020377508297521798,0.843991812847542,0.26161846201165506,8624.020676069951
12675,TiNi(1+y)Sn. Here y is 0.25,550,-0.00010459342315547384,5.806429888186631,0.16569837125002024,149268.5541506712
12707,Cu2Ga0.075Sn0.925Se3,550,0.00010437486607097484,1.8170827620706091,0.2529727701373485,69751.60635461156
12708,Cu2Ga0.025Sn0.975Se3,550,0.00015828060610179818,1.4607527748053046,0.2124943570464255,20292.572501257226
10789,Ba0.7K0.3Cu2Se2,550,6.868657743269527e-05,2.2782892016304643,0.16185449076335046,138503.77272035487
487,Fe0.98Co0.02Si2,550,-0.0001603127686193643,4.342518294010486,0.032033433087960944,9841.158433459925
14966,Ag9TlTe5.1,550,0.0002517708164046287,0.2404692403779536,0.6829312699466614,5028.929272402661
486,Fe0.98Co0.02Si2,550,-0.00014526259445107206,3.9628657319728777,0.02646100051691018,9035.357411910241
14967,Ag9TlTe5.2,550,0.00025622826663236257,0.27016634934320205,0.6993816684937706,5492.793160237441
485,Fe0.98Co0.02Si2,550,-0.00013102926634883384,4.086481305495832,0.019674544976914825,8514.416784811314
14968,Ag9TlTe5.3,550,0.000268095064103508,0.23241214078765965,0.6707389058697928,4109.498193823989
12729,Cu2.05Zn0.95Sn0.97Se4.03,550,9.533473071076248e-05,2.1517670065432166,0.1097582797473694,41389.599373974685
12736,Pb(1-x)Sb(x)Se at nominal compositions. here x is 0.01,550,-0.00010185436749662202,2.8130628843886685,0.3664787434213608,164508.07156719448
12737,Pb(1-x)Sb(x)Se at nominal compositions. here x is 0.0125,550,-9.708765934722889e-05,3.106210383375331,0.333690098412566,181610.4608351834
14960,Cu0.04TiSe2,550,-6.393073201243177e-05,2.2398431109605603,0.04615666075420187,50228.64214754148
14961,Cu0.06TiSe2,550,-7.62709170880463e-05,2.0296538859971807,0.09048942522456777,63772.164571651745
12728,Cu2.09Zn0.91Sn0.99Se4.00,550,9.703756355253584e-05,2.380238045485956,0.09910732978027233,40254.5925728898
12740,Pb(1-x)Sb(x)Se at nominal compositions. here x is 0.02,550,-9.047821542159195e-05,2.9209353263795803,0.331191398570132,185739.7308237289
488,Fe0.98Mn0.02Si2,550,0.00027085501588123233,6.5610739744901565,0.04314720773429955,7016.025767479056
12739,Pb(1-x)Sb(x)Se at nominal compositions. here x is 0.0175,550,-9.15082840475938e-05,2.9393281884726346,0.3234647817478685,196458.35977036288
14963,Cu0.11TiSe2,550,-7.907158129166136e-05,1.7610844307863809,0.13460025588642066,78763.81586490442
10155,MnSi1.73Cr0.02,550,0.00017745775789625582,2.40028478939788,0.1899022570680987,26317.233264198727
484,Fe0.98Co0.02Si2,550,-0.0002450400862765512,6.264881968279724,0.041761645228246484,7922.3409673904935
12715,Cu1.94Al0.02Se,550,0.0001533235595375777,1.9867378153264088,0.2273235552646937,32549.558404498068
478,Fe0.94Ti0.06Si2,550,0.00016057302352777875,9.358732262241936,0.0015470082895944724,907.8621832948013
12713,Cu2Ga0.075Sn0.925Se3,550,0.00010775587936377791,1.881093722459012,0.19160503231456613,50778.26811113327
12712,Cu2Ga0.05Sn0.95Se3,550,0.00012444295658142795,1.7444576636306772,0.19887190255337472,36134.90145973383
12711,Cu2Ga0.025Sn0.975Se3,550,0.0001579426169939679,1.599131864912156,0.2134464020769399,22559.919921761142
12710,Cu2Ga0.075Sn0.925Se3,550,0.00010838804207236563,1.6621774448359543,0.2143738001910801,50207.77722738687
14979,Tl8GeTe5,550,0.0001670789124012126,0.21760707570604215,0.4122869703393604,5292.623831750549
12709,Cu2Ga0.05Sn0.95Se3,550,0.0001242002304321688,1.5420522636680898,0.2168027073114781,34832.059828726626
12716,Cu1.94Ga0.02Se,550,0.00011568206918768415,2.1693771299845266,0.2310923975540043,60821.521338804014
12727,Cu2.14Zn0.97Sn0.94Se3.94,550,0.00010829959888522399,2.393766189560869,0.08706201520714255,33083.13031272428
12726,Cu2.04Zn0.98Sn0.96Se4.00,550,0.00011740248974045308,2.5614775427329333,0.11263175088105283,34406.064270451265
12725,Cu2.07Zn0.95Sn1.00Se3.96,550,0.00012320613420401465,2.226674098504168,0.1420091335398484,32987.11975724373
12724,Cu2.07Zn1.05Sn0.92Se3.93,550,0.00015609369328532075,2.0669120103823952,0.1377550742102921,19109.80004801436
12723,Cu2.23Zn0.91Sn0.90Se3.94,550,0.00031137030792982963,1.185275839145553,0.135863899407413,2619.7119015613307
4482,CeyFe4Sb12,550,0.00012166944829956379,2.8392805187152432,0.5121561045443566,171189.44704386222
483,Fe0.98Co0.02Si2,550,-0.00022516097059096791,5.933783983298187,0.028348577235395092,6032.7327377612
12719,In4Se2.67Cl0.03,550,-0.00017356872633873018,0.663075415077894,1.0198389676477668,37062.58871348925
12718,In4Se2.32Cl0.03,550,-0.00027711929491743253,0.8433201000169497,0.7858924454254175,14669.235727174946
12717,Cu1.94In0.02Se,550,0.00016849294556026126,1.2157304052359437,0.3921920132650282,27334.488364000706
9485,(GeTe)12Sb2Te3,550,0.00020100984579819034,1.5158064890662213,0.7789426319221718,47423.31591814559
15092,La2.72Te4,550,-0.00022626292807079903,0.642454538104021,0.3178455944893025,7252.188801543784
10236,FeAl0.06Si1.95,550,0.0001972026131355684,6.6088129619650315,0.04114348217185017,12712.661577383156
6018,Eu11Cd4.5Zn1.5Sb12,550,0.00017647059024876682,0.7286233506042948,0.32709935304799764,15397.190920520448
16465,RuGa2,550,0.00015553447925490158,3.563797370713293,0.3496162276276488,85339.82111173906
16631,(Zn4Sb3)0.9In0.1,550,0.00021795870316477256,1.711657504133935,0.269551967859276,17838.084574256627
1342,Si80Ge18Sb2,550,-0.000361713232911414,2.815371108748483,0.248012371080365,8244.789382451183
16466,RuGa2,550,0.0001463484464727542,2.931226386759699,0.3636093591559448,85504.12872328577
13270,Ca0.84Ce0.16Ag0.86Sb,550,2.423181428700356e-05,2.89276283150239,0.02808887305027974,210670.81085833415
16463,(Zn0.998Sm0.002)4Sb3,550,0.00017902132728352726,0.5963944369454268,0.9363193080778244,27908.994358368956
8188,FeSi2.5,550,0.0002571885999733093,10.780142868426916,0.014082596010005404,4172.9301882978025
16632,(Zn4Sb3)0.85In0.15,550,0.00020965904507441263,1.6191143097415024,0.20353843144025466,13508.700265675976
5027,Sn0.4Co3FeSb12,550,0.00013363529037694618,1.5496310161270626,0.23600978475363454,35847.96967226645
16511,Zn3.675In0.125Sb3,550,0.0001919716839581672,0.7692774172916252,0.8308369649205976,30824.886351190602
13495,K2Bi8Se9S4,550,-0.00017575629611390009,0.48781617102263397,0.3826809680941792,11301.463014349969
10252,Hf0.75Zr0.25NiSn0.98Sb0.02,550,-0.0001258204856103451,4.680326957927343,0.31724926691357563,151504.16868415562
5989,YbCdZnSb2,550,0.00012428540063228897,1.577533757700201,0.5647519351883123,96113.72120666053