sampleid,composition,Temperature,Seebeck coefficient,Thermal conductivity,ZT,Electrical conductivity
10236,FeAl0.06Si1.95,400,0.00018535555728125164,7.199797468886177,0.025276737508098075,13242.503123163886
16537,Zn4.06Cd0.04Sb3,400,0.000131312031123046,0.801494264897824,0.4921581087406709,56966.34792749326
16530,Zn4Sb3,400,0.00014517988437302192,1.1258984079044752,0.2820048414858786,34438.12471629711
16531,Zn4(Sb0.995Te0.005)3,400,0.00014615975875610795,0.7523768087073768,0.6239784890755047,55855.0685808907
16534,Zn3.91Cd0.04Sb3,400,0.0001701293780435331,0.7040993532612032,0.6550621576276265,39062.36032107753
10235,Fe0.90Cr0.10Si2,400,0.000310408915714722,13.977390927729907,0.012939970235396482,4692.78896511028
16535,Zn3.96Cd0.04Sb3,400,0.0001569997403220757,0.7187961178236453,0.5867975321652881,41681.224288467936
12719,In4Se2.67Cl0.03,400,-0.0001247258168451981,0.7713451868254677,0.5968431268723952,70803.13963059611
16496,(Mn0.8Cr0.2)Sir,400,0.00011298165421213598,2.3000711932834883,0.15249943561018298,66826.39632599722
10253,Hf0.75Zr0.25NiSn0.96Sb0.04,400,-9.066898340685431e-05,6.658889708863064,0.18918074957183187,381332.2589020107
16462,(Zn0.999Sm0.001)4Sb3,400,0.00014426658017725465,0.8866420329876126,0.3320798626097033,28945.945335541783
16463,(Zn0.998Sm0.002)4Sb3,400,0.0001485752037127606,0.6365029154245035,0.5377331564814891,32414.870173956602
16464,(Zn0.997Sm0.003)4Sb3,400,0.0001436804980036162,0.9533196518854096,0.32802523010645296,30407.895874815702
10252,Hf0.75Zr0.25NiSn0.98Sb0.02,400,-0.00010449803026371776,4.992520819138865,0.15969623562692753,169596.28034623002
16461,Zn4Sb3,400,0.00014344493623045653,0.9091445497511924,0.2250282981611104,21061.19828224639
16467,MnSi1.7,400,0.0001413018296493189,2.16365397441808,0.11146175389600572,30042.96706304765
1429,(Bi2Te3)8(Bi2Se3)2,400,-0.000205857980895058,0.6099999999999639,0.5215709775810933,19226.741290012174
10251,Hf0.75Zr0.25NiSn0.94Sb0.06,400,-6.131726202626453e-05,5.816258469245128,0.08357891539179113,319130.8136438805
12740,Pb(1-x)Sb(x)Se at nominal compositions. here x is 0.02,400,-5.939910555147383e-05,3.734741880436695,0.09881096225523812,253138.06570514836
1428,(Bi2Te3)8.54(Bi2Se3)1.46,400,-0.00021346817886861455,0.6949999999998724,0.6438971176982208,25107.098730606485
10250,Hf0.75Zr0.25NiSn0.96Sb0.04,400,-8.62514702004512e-05,5.243890103321052,0.14859511265721548,259613.35749974343
1427,(Bi 2Te3)9.02(Bi2Se3)0.98,400,-0.00018639617554554137,0.6809999999997132,0.6242398210141569,31275.334323922754
1430,Bi2Se2.83,400,-8.444743967883445e-05,0.4999999999985221,0.12185477908343535,22574.68488477985
12739,Pb(1-x)Sb(x)Se at nominal compositions. here x is 0.0175,400,-5.9790457612086254e-05,3.732915393330368,0.10222216187547743,269347.3700542317
10258,Hf0.5Zr0.5NiSn0.98Sb0.02,400,-0.00010052113210420394,3.582196623377617,0.16976964607813766,145594.51438775458
10257,Hf0.6Zr0.4NiSn0.98Sb0.02,400,-0.00010589404491832432,4.310477593442036,0.18341302625300712,177711.3152195471
10255,HfNiSn0.98Sb0.02,400,-9.660872193288491e-05,5.2438776155988975,0.09966073004741988,135066.07592248375
10254,Hf0.75Zr0.25NiSn0.94Sb0.06,400,-5.480479913243564e-05,8.209350202484094,0.08063721275489573,508802.44459390367
10256,Hf0.75Zr0.25NiSn0.98Sb0.02 ,400,-0.0001087144630143846,3.419782461344557,0.1637365550725587,114877.97363447267
12715,Cu1.94Al0.02Se,400,0.00011309718245462856,2.0346278583840807,0.1408388696985433,58434.35988582397
1426,Bi2Te2.90,400,-0.00014674007799103108,0.7049999999996999,0.4662588777596834,41190.180180180185
10249,Hf0.75Zr0.25NiSn0.98Sb0.02,400,-0.00010843406348269122,3.4641563561664253,0.16430135912754248,112506.19723823533
16492,MnSir,400,0.00017126197333989035,2.6522426764189597,0.112596671364316,25330.476336620883
16493,(Mn0.95Cr0.05)Sir,400,0.00015136245049566987,2.3735122835468188,0.13587887344503707,36119.871606386514
16494,(Mn0.9Cr0.1)Sir,400,0.0001418128821313595,2.4213344851949317,0.15294870975439626,43206.11329780898
16495,(Mn0.85Cr0.15)Sir,400,0.00012037679273442331,2.213785091631783,0.14998073255225886,57657.485928408074
12737,Pb(1-x)Sb(x)Se at nominal compositions. here x is 0.0125,400,-6.522368492859185e-05,3.97923630125899,0.10308988402936904,245943.25554613353
10246,Ag0.83Sb1.06Te2,400,0.00019189721781231423,0.4494387871450764,0.8268044606331753,21355.606052108258
12736,Pb(1-x)Sb(x)Se at nominal compositions. here x is 0.01,400,-6.775731744381651e-05,3.6085115013950855,0.11840036797735876,226438.68420347886
10244,AgSbTe2,400,0.0002689149941793862,0.3192969785267452,0.9848793657882368,10377.321439656816
16565,Mn32.4Re4Si63.6,400,0.00014957102301996737,1.8947990171567108,0.27295592870651075,57196.689769575125
16566,Mn30.4Re6Si63.6,400,0.0001518565190828874,1.6328228412033925,0.3656850914711776,67696.12267578424
10217,Fe0.98Co0.02Si2,400,-0.00028531051126853027,4.127760186356786,0.04311526075161703,5465.752214612917
12706,Cu2Ga0.05Sn0.95Se3,400,9.45008855901188e-05,2.1098204676127046,0.095655609691022,50621.52576569837
10216,FeSi2,400,-0.00017600832503715058,4.471511657601063,0.0334218267872868,12060.300805305536
10215,(FeSi2)0.95(TiB2)0.05,400,-0.0001521810072618654,5.1504857218108695,0.030017297048654943,16689.32879013716
16672,AgSbTe2,400,0.00018508079363791974,0.7481818227451131,0.7445853730896426,41529.38866868029
16671,Ag0.84Sb1.15Cu0.01Te2.16,400,0.0002714114690190391,0.8153458037747843,0.8351905440776556,21646.70294670875
16658,AgPb18Sb2Te20,400,-0.00013344575627336424,1.3604513354461147,0.4479860721414786,78988.95264969928
12709,Cu2Ga0.05Sn0.95Se3,400,9.535262102332786e-05,2.064534700070748,0.08671433156770192,44114.677583273166
12708,Cu2Ga0.025Sn0.975Se3,400,0.00012715098560687351,2.0238501840758194,0.08283056907857267,26236.640111966088
12707,Cu2Ga0.075Sn0.925Se3,400,7.77277647515995e-05,2.365122385544706,0.10044619707115382,88742.50683065367
16668,AgSbTe2,400,0.0002927531899602696,0.7353434852252385,1.136269191759856,23175.625596601592
16669,Ag0.84Sb1.15Ce0.01Te2.16,400,0.00029195082879114625,0.9114885888720738,0.8833838679265877,22585.555258884677
16670,Ag0.84Sb1.15Yb0.01Te2.16,400,0.0002670201170321149,0.8489818143655414,0.8982641797651209,24340.544697012163
10219,Fe0.95Cr0.05Si1.946Ge0.054,400,0.00020781504162162152,8.164090542649095,0.014433233067555003,6821.148254488116
1312,BiTe,400,-0.00013655550771625918,1.3197684418296929,0.7367429013698997,129122.22319576475
16710,AgSbTe2,400,0.00020391188934784342,0.7629447746900236,0.6160297568279411,28477.769289912972
10084,MnSi1.73,400,0.00015671514583903674,2.4339738817942633,0.11190857355883284,27726.64615401849
16711,Ag(Sb0.97Bi0.03)Te2,400,0.00028430136938054843,0.6140010903729984,0.4510733976477837,8553.756834275366
1311,BiTe,400,-0.00012253523608656022,1.14094262166876,0.5759182292561349,108986.35878603753
16713,Ag(Sb0.93Bi0.07)Te2,400,0.00027167534223574753,0.6790605783129186,0.3931829378252131,9807.735980339996
16714,Ag(Sb0.9Bi0.1)Te2,400,0.00021014473801216882,0.8402667107341478,0.1579215679056194,7435.234842865325
16712,Ag(Sb0.95Bi0.05)Te2,400,0.0002426890396948619,0.5651873736358778,0.670097256988641,15733.168783115063
10213,Fe0.94Co0.06Si2.00,400,-0.0001642078944551944,3.6110182162175284,0.048121653882087286,16929.458947769104
16655,AgPb18SbTe20,400,-0.0002658074461198496,1.1736345970236663,0.4821758856613307,18607.101008193986
1350,Si88.75Ge11.25P0.75,400,-0.00012305835501687646,4.8463721666637865,0.16194461061556556,129568.98580619784
10228,Fe0.95Cr0.05Si2,400,0.00034039478499856853,11.428500195033154,0.013675629108301815,3372.180144342785
1349,Si91.25Ge8.75P0.45,400,-0.00013562295756441124,5.493178995751637,0.14023978012904315,104705.2745273332
1348,Si93.75Ge6.25P0.15,400,-0.00016315404574971062,6.312722941757926,0.1353016205775304,80216.5613503397
1347,Si0.8Ge0.2B0.016 (CrSi2)0.091,400,0.0002656580869855023,1.5566863128007051,0.0891696068344844,4917.132208061047
12376,Fe2V0.98W0.02Al,400,-7.815169028335808e-05,9.831574651097053,0.0355597706000923,137295.081656017
1346,Si0.8Ge0.2B0.016 (CrSi2)0.091,400,0.00024302662919018788,2.9432457091029063,0.1584450212937804,19739.556868063264
12377,Fe2V0.96W0.04Al,400,-9.151206484672964e-05,9.325918206754627,0.05714141408472825,151716.6348589285
1345,Si0.8Ge0.2B0.016 (CrSi2)0.091,400,0.0002455212452207203,2.9105912956744264,0.19599352101100015,23658.368597999237
10227,FeAl0.10Si2,400,0.0002279293311795983,6.62304240761036,0.03553023608471294,11323.878618172574
16567,Mn28.4Re8Si63.6,400,0.00013138082112229235,1.6831897971426415,0.30295972721118714,72519.99071544647
10231,FeAl0.06Si1.95,400,0.00019941481829677368,7.179196635362882,0.02768160582540009,12493.73480470176
10230,(FeSi2)0.875(TiB2)0.125,400,-0.00012757950295025792,6.0301811926199385,0.026508649912474515,24552.52537506135
1352,Si83.75Ge16.25P1.35,400,-0.00011900234166850516,3.99508067737226,0.17991349398525874,126887.3378552448
1351,Si86.25Ge13.75P1.05,400,-0.00011064967732188702,4.365815450733852,0.16233660277306208,144717.66008203506
10229,Fe0.95Co0.05Si2,400,-0.00017654313182702367,3.271157696105687,0.04031054391377247,10576.902349631097
12375,Fe2VAl,400,-1.622730457132776e-05,15.27877519234994,0.0009157822152397984,130800.18509555713
12713,Cu2Ga0.075Sn0.925Se3,400,8.063000675945246e-05,2.4727399175115408,0.07478550233702655,64217.29094735487
16644,Zn4Sb2.96Te0.04,400,0.00011686041345242964,0.7770982742996869,0.3829845713165056,54804.430731074055
16645,Zn4Sb2.94Te0.06,400,0.00013884586648554512,0.8694309342357243,0.3394366128531481,34645.33592088391
12380,Fe2V0.90W0.10Al,400,-0.00010667137792544189,5.821607402163298,0.17728400619385498,222360.79474207995
16646,Zn4Sb2.92Te0.08,400,0.00015786985577600325,0.6831286349449148,0.4319698270732458,27816.870911320493
12712,Cu2Ga0.05Sn0.95Se3,400,9.37553957582974e-05,2.346771426595069,0.07578393834227304,45787.68088968856
10223,Fe0.9Fe0.95Co0.05Si1.958Ge0.0425Cr0.05Si1.946Ge0.054,400,-0.00014939964690938049,4.653638652914976,0.03267342036855978,17030.528479514734
12710,Cu2Ga0.075Sn0.925Se3,400,8.221927681877109e-05,2.1783392134224497,0.08089002534191919,63411.85979178183
1338,Si80Ge18Sb2,400,-0.0003229721022330554,5.109163731273337,0.16026551119110133,16233.219898591768
12711,Cu2Ga0.025Sn0.975Se3,400,0.000127513237141953,2.2416318889194717,0.0930173405466169,28684.084215072828
10226,,400,-0.00016077478643519748,3.488945384302663,0.04431709394894026,16452.60480039149
16642,Zn4Sb2.98Te0.02,400,0.00010804364701948116,0.8387210143247619,0.32193494850871296,61567.7938589546
1344,Si0.8Ge0.2B0.016 ,400,0.00017000993200239317,2.590394695751981,0.18569157239724887,41605.38615656709
12378,Fe2V0.94W0.06Al,400,-0.00010501173852480758,7.810495336465032,0.0962749664001197,176986.65961677398
1340,Si80Ge18Sb2,400,-0.0003196074550762665,2.8139319311491167,0.12134728969603133,7248.024269014243
16637,"HMS(Mn4Si7, Mn11Si19, Mn15Si26, and Mn27Si47)",400,0.00014548079763544489,2.6948137064708404,0.1573720580729039,45925.975909303386
16638,"HMS(Mn4Si7, Mn11Si19, Mn15Si26, and Mn27Si47)",400,0.0001395989667357971,2.5555238777849905,0.1619188945562822,48448.07164353639
12379,Fe2V0.92W0.08Al,400,-0.00010171847918463328,6.7709514641706745,0.12086842467581035,197261.96455438712
16639,"HMS(Mn4Si7, Mn11Si19, Mn15Si26, and Mn27Si47)",400,0.000152394143773771,2.214152909105436,0.17868458321084835,41561.65470560618
16640,Zn4.08Sb3,400,9.62672304654229e-05,1.133378397839185,0.2391705244935361,66003.2208344251
6330,YbZn1.8Mn0.2Sb2,400,8.673630783954437e-05,1.9437675629372984,0.06540457229123306,40165.600582701576
16339,Ge3.5Sn0.5SbTe5,400,0.0001363384866582028,1.3070076877951349,0.19804978736489015,34814.133719857535
16341,Ge2.5Sn1.5SbTe5,400,0.00010112798821885229,1.4175855873289096,0.16181605888518918,56074.8579104033
16342,Ge2Sn2SbTe5,400,9.637119306020276e-05,1.2184014523163418,0.22207071765223907,72832.83946223783
6326,YbZn2Sb2,400,7.003393993349441e-05,2.841916011169037,0.09603734562625582,132478.96160889632
6327,YbZn1.95Mn0.05Sb2,400,0.0001076310384793532,2.222937075856325,0.15786106036828684,71410.59268789439
16343,Ge1.5Sn2.5SbTe5,400,9.162207117312944e-05,1.4957966247947114,0.1465505005263316,65282.93233969918
6328,YbZn1.9Mn0.1Sb2,400,8.873642809242013e-05,2.2455751682496965,0.12815740570559192,88739.23689172849
6329,YbZn1.85Mn0.15Sb2,400,0.00011738432508367826,2.187070763372077,0.18139558910688336,67975.96930337418
10356,Ag9TlTe5,400,0.0003322319499053216,0.2370620196183736,0.20115324898222064,1127.8979279322234
16344,GeSn3SbTe5,400,8.302170208027932e-05,1.4898420261226741,0.13469666892867005,72786.9999454124
16345,Ge0.5Sn3.5SbTe5,400,8.052642640608124e-05,1.9169223868587533,0.14005598653787155,103506.91437822882
6331,YbZn1.7Mn0.3Sb2,400,0.00011206408890246844,2.092887192768651,0.09805957797744944,38719.16929966538
12860,CdSb,400,0.00039009899760848596,0.9060965469069806,0.2870664215938741,4123.799032256147
12861,Cd0.999Ag0.001Sb,400,0.0002391312106413377,0.9371482423033388,0.7232814489396423,28655.77899923119
12862,Cd0.997Ag0.003Sb,400,0.00023480190206160868,0.9868851065091984,0.7756307721524518,33665.54131372472
12863,Cd0.995Ag0.005Sb,400,0.0002312873570035522,0.9680962832423774,0.8383637751185553,36801.70430627991
12864,Cd0.99Ag0.01Sb,400,0.00020416853215739198,0.9436839720487812,0.7333769470723974,40131.13654260247
10385,PtYSb,400,0.00017759207084296682,3.1770362195597435,0.1239053442550972,33383.81491518105
10388,NaxCoO2,400,0.00012646913786818484,1.5623732574833888,3.576451862324777e-09,0.0008733897148954678
16266,Ir3Ru30.4xGa66.6,400,-0.00015440356426147902,3.1459665437632482,0.27800237639085323,95939.61211121707
16271,Ge3MnSb2Te7,400,0.00014852498327322402,0.7885579105915754,0.2284149041679028,18812.476596316967
16272,Ge3MnSb2Te7,400,7.65481044358066e-05,1.4140491532416024,0.054700179400966,35979.324904296336
16274,Ge3MnSb2Te7,400,7.200159849966601e-05,1.5599711781494776,0.05223023195149645,43075.12968083323
16275,AgSn4SbTe6,400,9.906236795248491e-05,1.9340542084578816,0.3421966885048894,165144.62924159225
6332,YbZn1.6Mn0.4Sb2,400,9.678897367680724e-05,2.072322462094278,0.0830157370100141,47157.970204809746
16423,Ag0.5In0.4Pb5Sn4Te10,400,0.00011504901166409871,1.4600581113690396,0.2950531495499339,75869.40470602173
16424,Ag0.5In0.35Pb5Sn4Te10,400,9.515552112372236e-05,1.5749658152483763,0.2647458678671406,105040.7611761822
6347,Ca0.99Na0.01Zn2P2,400,0.00017639689913889913,2.551671696379436,7.154172442952252e-06,1.46670345914135
12790,InSb,400,-0.00024752243760557896,12.615501870288524,0.14184712478254566,73019.00849651021
16422,Ag0.5In0.425Pb5Sn4Te10,400,0.00017459790448160677,1.0227261037845603,0.34698844139656393,27580.83799985008
16417,TlCu3Te2,400,5.9226176619051414e-05,0.6809108999590409,0.12956028653630802,62630.254332849676
16418,TlCu2Te2,400,4.677311353592258e-06,7.44639699143544,0.0008246195983806568,599099.1547422402
10262,Hf0.5Zr0.5NiSn0.98Sb0.02,400,-0.00010986970767107036,4.4257943902804815,0.2259680784405149,198236.25437502447
16445,(Zn0.985Cd0.015)4Sb3,400,0.0001550955844892721,0.6668456255414322,0.5294459393307239,36641.2280330546
16446,Zn4Sb3,400,0.00012171228185630005,1.1768614106330997,0.3255546503128454,65380.93729515781
10261,Hf0.6Zr0.4NiSn0.98Sb0.02,400,-0.0001150857206936934,4.64638274138322,0.253175073873972,215537.56019511085
6351,CaMnZn0.8Cu0.2P2,400,4.02368688985038e-05,2.4701132337743155,0.00020598579879733793,785.6801756655212
16447,(Zn0.99Cd0.01)4Sb3,400,0.00014383568592010382,0.8966365633837267,0.4777627853304289,51462.015662319696
10259,HfNiSn0.98Sb0.02,400,-8.794557215435292e-05,7.743960835253767,0.09919010067094973,253356.08083161895
10279,Si0.8Ge0.2,400,0.00012282051782551748,2.6085698266540365,0.11970400928258225,51632.48475925245
16442, (Zn0.99Cd0.01)4Sb3 ,400,0.00016017777130424642,0.7202652224643095,0.5705203018942917,39698.585738828384
16438,Zn4Sb3,400,0.00014058801899018516,0.7425584137062127,0.5009068769639493,46213.454677413385
6350,CaMnZnP2,400,0.00016280503853427763,1.9529344785605032,5.7416591197600756e-05,10.576193882430193
16440, (Zn0.995Cd0.005)4Sb3,400,0.00015447697005064996,0.7369280208272492,0.5781044942362485,44400.7581367808
10263,Hf0.6Zr0.4NiSn0.98Sb0.02,400,-0.00011942236342018384,4.4867677473411485,0.2787746973589176,212809.97797548282
12815,Cu2ZnSn0.95In0.05Se4,400,0.0001237563776758799,2.5772965073676115,0.05056622451055853,18228.69507318304
16388,Ca2.8Yb0.2Co4O9,400,0.00013429657607354442,1.0477612188224223,0.05069294383352625,7406.946513422263
12816,Cu2ZnSn0.90In0.10Se4,400,0.00012030873758445571,2.6110068953007843,0.05485116992582334,22134.9181415182
12817,Cu2ZnSn0.85In0.15Se4,400,9.692646063669082e-05,2.7296940577492785,0.03853870353045813,25151.51776491187
6338,Yb0.8Ca0.2Cd2Sb2,400,0.00016113206018461698,1.3379100161169046,0.25467658924627273,30358.88148444189
16402,NaCoO2,400,0.00010222716543267543,4.699052114574677,0.06623140338042352,79380.34077625939
6339,Yb1Cd2Sb2,400,0.00014358155004770158,1.6835642480884891,0.224961785478495,40980.80711297475
16403,FeSb2Te,400,0.00016002146157541173,3.0441332563211065,0.082069171582207,23055.176269568434
16404,FeSb2Te0.95Sn0.05,400,0.00013572032943906948,2.8004988748297306,0.10417637849350296,38339.124229879686
16405,FeSb2Te0.9Sn0.1,400,0.00010433292127178271,2.6899679295494128,0.10759798166054292,63471.36235181225
16406,FeSb2Te0.85Sn0.15,400,9.095797880744333e-05,2.4755925396667107,0.12724577031619766,91539.91354592831
16407,FeSb2Te0.8Sn0.2,400,6.88327391251742e-05,2.267958427687588,0.07759562551798654,103209.17684547248
6335,Yb0.4Ca0.6Cd2Sb2,400,0.00020067674481668747,1.168906043006551,0.295835844834068,20146.68845493174
6336,Yb0.5Ca0.5Cd2Sb2,400,0.0001814170795713228,1.1114082704488455,0.3105988515607494,24860.13082934243
6337,Yb0.6Ca0.4Cd2Sb2,400,0.00018378681397829405,1.1695515019884437,0.34188602952372005,27539.202400736263
6770,PbS-ZnS,400,2.624418127858516e-05,1.3230392337633587,1.7966201924161705e-09,0.008627857236977711
12415,NbCoSn0.92Sb0.08,400,-8.696775089414882e-05,6.7849594014826105,0.08636711452636095,186700.76153380974
17148,Zn0.97Cd0.03Sb,400,0.0002258264099397612,1.5659667151862278,0.5081556603042502,34177.14951238512
17149,Zn0.97Cd0.03Sb,400,0.0002068698262075673,1.7462963832504284,0.4533684256720209,43428.48708142795
17151,Zn0.97Cd0.03Sb,400,0.00020796706039795412,1.6122937541379816,0.42856969387796107,39940.778979614806
10148,Zr3Mn4Si6,400,1.437926272189526e-05,14.938703409862065,0.0009408375201946989,169939.48770928162
12416,NbCoSn0.9Sb0.1,400,-8.949577888596371e-05,6.363629516940875,0.10519860743699007,212381.4223920648
10152,Mn0.95Cr0.05Si1.74,400,0.00013044498088003438,2.6782198923677663,0.13875959873748345,54600.237083082415
35,Fe0.98Nb0.02Si2,400,7.513695600039863e-05,8.798040004648229,0.00017973675106987164,812.6023660046521
12414,NbCoSn0.94Sb0.06,400,-9.51432182321919e-05,6.580921810294693,0.09907856222595994,177860.96421371066
10151,TiMnSi2,400,1.3535694223064814e-05,6.793292128995698,0.0005847252616681432,54201.47265903121
10150,MnSi1.73Cr0.03,400,0.00014471436846197078,2.6228389907424208,0.06542150240408233,20483.720723127626
10104,MnSi1.78,400,0.00014456900421093208,2.3819106236328604,0.4712812778395285,134275.03620633727
12418,Nb0.99Ti0.01CoSn0.98Sb0.02,400,-0.00013561349804062331,6.245207903803617,0.08186558715039402,66111.45814137757
10144,MnSi1.74,400,9.444666969359345e-05,4.268056667056613,0.0587237176268131,70244.19336847909
370,Pb1Se1Cl0.001,400,-0.00017407874187555983,1.8795078641793561,0.4526852112103048,70192.22095377895
240,Pb0.98Na0.02Te0.84S0.16,400,0.0001168273762897666,2.156034643013866,0.2266425519181184,89505.13422366207
10105,MnAl0.0063Ge0.027Si1.7667,400,0.00013981795704219374,2.483334835564519,0.1567011788469006,49764.729618722864
343,Pb0.98Na0.02Te0.88S0.12,400,0.00013530107399908594,2.0802821510316565,0.35300261441928865,100285.39407577133
10146,MnSi1.73,400,0.00015634286867599568,2.4406500001926617,0.11170202820894523,27883.7011123155
236,Pb0.98Na0.02Te0.92S0.08,400,0.00011531216723030654,2.2165377452656156,0.2971449871817197,123832.1117003222