sampleid,composition,Temperature,Seebeck coefficient,Thermal conductivity,ZT,Electrical conductivity
13917,PbSeIn0.003,450,-0.00012175979592912549,2.235855571679433,0.3706021508276718,116412.42210875948
13858,Tl8.85La1.15Te6,450,0.00014046303504422017,0.4183823861379896,0.15839221906914186,8221.477667413064
5854,MgAg0.96Cu0.01Sb0.99,450,0.00023685279469835976,0.8021834149154972,1.1633120761276556,36286.41653022888
13859,GeSnSb2Te5,450,4.250410542192511e-05,2.513518680487142,0.04370399908423663,135122.91999753032
13860,Ge1.3Sn0.7Sb2Te5,450,4.2164674649834165e-05,1.98873970454382,0.0569698494876299,141616.21915901857
13861,Ge0.6Sn0.4Sb2Te4,450,4.358353896725154e-05,1.7905064654492882,0.0683881301230333,143251.4825732857
5853,MgAg0.963Cu0.007Sb0.99,450,0.00022732967086068056,0.8178873359152009,1.210865754848653,42140.789108151344
5852,MgAg0.967Cu0.003Sb0.99,450,0.00023573139841411432,0.8373873954466224,1.1431835545404965,35787.417092639844
5851,MgAg0.97Sb0.99,450,0.00023972710677765097,0.8573952319673686,1.056646564625107,34234.55531920895
13857,Tl9LaTe6,450,0.00010078150453629432,0.4763985208374715,0.16155171527811404,17760.727049326197
13856,Tl9.25La0.75Te6,450,6.91782221869906e-05,0.8843667479640469,0.06487823948393022,26700.147774899462
13855,Tl9.5La0.5Te6,450,3.572641789440069e-05,1.247682393478669,0.04710279911373713,107710.18742688336
5855,MgAg0.97Sb0.99,450,0.00024242606908615836,0.8685321617342048,1.0321970044932802,31352.469388797843
13842,Tl9BiTe6,450,0.00026358098703762705,0.3737731057506761,0.8471520007089441,10691.254841883554
13843,Tl9Bi0.99Te6,450,0.00024178741329350175,0.4078139902788501,0.8720794802051504,14643.715578749106
13844,Tl9Bi0.98Te6,450,0.0002195937046046968,0.4169729771189365,0.8995572534591665,17727.23216844156
13845,Tl9Bi0.97Te6,450,0.00019984526716710252,0.4707963911304133,0.8231066574919623,22232.705822404445
13846,Tl9Bi0.96Te6,450,0.0001950603612068864,0.519672969533236,0.7510299368717825,23296.4182504344
13847,Tl9Bi0.95Te6,450,0.0001861677720423787,0.5155296923371195,0.7183118225568936,25133.495237258456
13848,Tl9BiTe6,450,0.00026268282441324446,0.3794493778483732,0.8317084369358616,9975.19299709272
13849,Tl8.99Bi1.01Te6,450,0.00029651313783977837,0.33368536015709743,0.5760954822303275,4763.9879221822885
5856,MgAg0.97Sb0.99,450,0.00023841598338296112,0.8559602105610031,0.9937563946628724,32671.238638144354
13851,Ge0.87Sb0.09Te,450,0.0001248084302439663,2.582137428515116,0.3405101072141337,129961.20478427575
13852,Ge0.87Sb0.09Te,450,0.0001389817459255042,2.4558358189069085,0.4814752154024926,128357.47016661895
13853,Ge0.86Sb0.09Te,450,0.00013390219856746434,2.4867264758425542,0.4114423205247699,115086.4483837982
13854,Ge0.86Sb0.09Te,450,0.0001552814339709651,1.8052780828287376,0.5632107141205149,97388.6028825186
13874,Mn0.48Te0.52,450,0.0005919354465342531,1.4551181288373978,0.03001308913835324,267.3969040268228
13875,Mn0.49Te0.51,450,0.0006060104156629339,1.2677990535487422,0.03897625008676131,297.9693984558192
13914,PbSeGa0.003,450,-8.919444185198191e-05,2.3577685550637204,0.27954224477515954,185792.68145058863
13915,PbSeGa0.005,450,-8.626905818350163e-05,2.7509472004210416,0.3280123378862969,246001.7685739751
13876,Mn0.50Te0.50,450,0.0005841503819314207,1.1195155057000312,0.04567108496856462,322.61192920229615
13877,Mn0.51Te0.49,450,0.0005733381545172116,1.232246634978549,0.04448002700468845,350.6133306651709
13878,Mn0.52Te0.48,450,0.0005185457201020102,1.0691197218003747,0.03758028267458136,288.88600994768984
13883,Ge0.95Mn0.05Te,450,0.00010431372861951695,2.9963725901061613,0.4783540989422032,249154.37006728488
13884,Mo3Sb7,450,2.377471815402153e-05,6.655952456946424,0.023009109152203444,547319.8858367343
13886,Mo3Sb5.6Te1.4,450,6.984433959415464e-05,4.004238741192453,0.10652129021231302,172719.26126777608
13887,Mo3Sb5.2Te1.8,450,9.844921337634184e-05,4.367572517565924,0.09872954570476024,97777.51674452492
13888,Mo3Sb4.8Te2.2,450,8.293645266351754e-05,4.2988214556994615,0.06621185882850986,79592.80237077124
14325,In4Se3,450,-0.0004088301084846428,0.6689906177992055,0.22560505200052286,1855.2915054718726
14326,In4Se3,450,-0.000451826605311083,0.6292144136824336,0.16701136537659667,1117.168656090228
14327,In4Se3,450,-0.0004132231367234006,0.6580301296388058,0.1627070108739772,1290.949897443451
14987,Tl5Te3,450,2.9270576428071564e-05,3.4186766320586384,0.02865551002098964,216485.21950133925
4619,Co0.92Ni0.08Sb2.96Te0.04,450,-0.00013062769119952169,4.034855159790102,0.20083911631225654,96951.40970751109
14989,Cu2SnSe3,450,9.817465981618265e-05,1.461379197890679,0.11341147068165895,32908.10087817717
14990, Cu:Co:Sn:Se = 1.92:0.16:0.69:3,450,9.756796821332171e-05,0.9021035161814386,0.19645140687013224,35655.55723690598
14991, Cu:Co:Sn:Se = 1.94:0.15:0.71:3,450,0.0001412702906942515,0.9290470750739538,0.16031071672212355,14792.755827945586
14992,Cu:Co:Sn:Se = 1.82:0.16:0.76:3,450,0.00017442922785846314,0.9657976296132492,0.15878422855238106,9661.898686992172
14985,Tl2Te,450,0.0001491091067269799,0.3506203267827641,0.0766702001959067,2165.025927060722
4618,La0.3Co3.68Ni0.32Sb11.84Te0.16,450,-0.00015303990792548764,2.1464989343866714,0.3506539291766594,67537.13951969852
14998,Ag2Te,450,-0.0001002453956372668,1.003875252097157,0.3017165765708401,66978.82694761964
14999,Cu2ZnSnSe4,450,0.00010448990995145892,1.360589905919955,0.061383458263720964,15134.207345298571
15000,Cu2ZnSnSe4,450,6.823314499640641e-05,1.5510291734262136,0.05782434940786471,37669.50395937696
4617,La0.3Co3.68Ni0.32Sb11.84Te0.16,450,-0.0001719804209844494,2.049943569921227,0.4840139787399261,70154.55142316483
15003,(CuInTe2)0.995(2ZnTe)0.005,450,0.0002484631378878821,3.1902218827014823,0.1384196118214702,15895.788345894705
14984,Cu2ZnGe0.9In0.1Se4,450,0.00012464649068557451,1.7995865364476256,0.09123822026804036,19071.89558342636
14961,Cu0.06TiSe2,450,-7.853383512686904e-05,2.086976347028076,0.1081316223704862,87229.80554709674
14962,Cu0.08TiSe2,450,-6.827638178478644e-05,1.8053651633283836,0.10509238473348563,103982.1626589833
14963,Cu0.11TiSe2,450,-6.980024440030227e-05,1.7310432387900796,0.11794506399203275,109560.78980240553
14965,Ag9TlTe5.05,450,0.00032420186029863846,0.23351059023438225,0.3282867409600193,1349.05822958031
14966,Ag9TlTe5.1,450,0.0002549821244684804,0.2197372157731382,0.4722742691404321,3371.5126322805872
14967,Ag9TlTe5.2,450,0.0002591121531964424,0.27016841642834993,0.4687730284382907,3869.6099873356334
14968,Ag9TlTe5.3,450,0.00027220388480096535,0.23689048122595474,0.4110386560378985,2604.1693553970604
14979,Tl8GeTe5,450,0.00016952810848811818,0.17964418233545634,0.3191684912842755,4189.41982931952
4516,Co0.8Ni0.2Sb3,450,-5.7158705309139e-05,5.701616068062132,0.0402297396413058,145823.47663877928
4514,Co0.99Ni0.01Sb3,450,-0.0001227051273609223,5.80396938268486,0.04703355169674151,44734.713883440214
15042,Cu2Se,450,0.00011903112630735923,0.9905306446109908,0.3982321678128608,50925.1339043176
15046,(Cu2Se)0.985(CuGaSe2)0.015,450,0.00010765541471551109,1.1770507027159949,0.3190268469744528,66117.95379160336
15047,(Cu2Se)0.975(CuGaSe2)0.025,450,9.948639540199671e-05,1.2195070140175823,0.29465617252121484,68168.63656959907
15048,(Cu2Se)0.97(CuGaSe2)0.03,450,9.180410159519358e-05,1.3370977980781136,0.2566523192199172,81644.77728667634
15050,Y1−xB28.5C4,450,-1.6874098175108005e-05,1.4552915664326391,5.891200373576469e-09,0.06691140512558902
15044,(Cu2Se)0.9925(CuGaSe2)0.0075,450,0.00010917069224671115,0.9924329357659821,0.4019398786241247,61067.29867903505
15034,In4Te3,450,0.00014613703570480482,0.5373763369615411,0.01306935930645664,622.0874316519837
15032,In4Se2.85Te0.15,450,-0.00024411943560527936,0.6758438226537062,0.1305908957009385,2648.8934666626833
4615,La0.3Co3.68Ni0.32Sb11.84Te0.16,450,-0.00014978829832503631,2.24396706125882,0.400948856345429,81609.89307292401
15021,GeIn0.6Sb5.4Te10,450,0.00010864577472594007,0.4888421708237518,0.4014062605805769,35651.2956492872
4616,La0.3Co3.68Ni0.32Sb11.84Te0.16,450,-0.00015913421492599818,1.869819574566583,0.5401840396030897,80142.02725593737
15022,Ag3.4Mo9Se11,450,8.895480884311024e-05,1.2656093431085855,0.15998658601191246,49174.21125204941
15023,Ag3.8Mo9Se11,450,0.00011577017667771575,0.83537202425604,0.2468629260588121,29910.096225024517
15025,YbSb2Te4,450,0.00010615500800124996,0.6787154022671933,0.4109803233301354,53106.88022050377
4520,CoSb2.7Te0.3,450,-9.621861264984284e-05,4.458578827638776,0.13716248897267808,147986.86730241214
4519,CoSb2.8Te0.2,450,-0.00011109369786382241,4.100120520283801,0.20211724629074165,149284.33167810034
4518,CoSb2.9Te0.1,450,-0.00012199373632745704,4.989224993730394,0.16171153038170644,125243.90056207965
14960,Cu0.04TiSe2,450,-6.971769126134096e-05,2.0939934300584038,0.058580495293997135,61116.184681638835
4725,YbCo4Sb12,450,-7.974308104618804e-05,5.066260655864027,0.2017373960901645,337378.0985084467
4723,Yb0.4Co4Sb12,450,-0.00014089387486043695,3.0218731928615576,0.5866451748475269,194598.9598800436
4722,Yb0.35Co4Sb12,450,-0.0001543524428049641,2.8279451476807402,0.6859743824810893,175249.45572366947
4721,Yb0.3Co4Sb12,450,-0.00016091785292080902,2.8855604144463647,0.6578463938587203,159228.8924381088
4724,Yb0.5Co4Sb12,450,-0.00013013430781824917,3.055494941967127,0.5225268949111095,208518.19018872586
4838,Yb0.6Co4Sb12,450,-0.00011486549104048432,3.192696973252135,0.42192310431610347,210056.0664887256
4837,Yb0.6Co4Sb12,450,-0.00010709057185933852,3.4393910509293297,0.43132174232039255,276327.14255121624
4836,Yb0.6Co4Sb12,450,-0.00010937602900888835,3.2399064393215733,0.4706050667708701,275802.35642266704
4835,Yb0.6Co4Sb12,450,-0.00011333288903108858,3.3259422425090137,0.4536446743686534,257860.89725453648
4834,Ba0.19Eu0.23Co4Sb12.03,450,-0.00010245914340285142,4.348296640479642,0.4417807549601006,395034.4829698261
4833,Ba0.14Eu0.13Ci4Sb12.05,450,-0.00012991177066709706,4.033973479562807,0.5420332560024645,282430.0304213245
4832,Ba0.24Yb0.12Co4SB11.85,450,-0.00013156823924702284,3.596411054796289,0.5617248219760136,252654.29276159237
4831,Ba0.15Yb0.09Co4Sb11.86,450,-0.00014634480014675004,3.36148094465327,0.5507955237859181,191607.83498513905
4830,Yb0.14Co4Sb12.05,450,-0.00018229262292068942,3.2180756869266585,0.6279288243736815,131076.60507161636
4829,Ba0.23Co4Sb12.22,450,-0.00013971106632479742,4.223912399198967,0.485056066503098,226141.32559643828
4709,Ca0.20Co4Sb12.46,450,-0.00013922018233039445,3.833754520578621,0.11374534719358033,40963.94578058815
4710,Ca0.15Co3.98Ni0.02Sb11.80,450,-0.0001484862256494407,4.290401729058806,0.2352934659809238,90102.667285016
14940,Tl2Te,450,0.00014289119696836176,0.3444431837355421,0.08029751214160757,2459.6446680390563
14923,Ag0.95InTe2,450,0.0005427904746591707,0.9780015836786452,0.00025034883550275537,1.8467503266125656
14925,Pb0.71Mn0.04Sn0.25Te1.00,450,0.00016012224323803178,0.8731495569943063,0.017869120422701782,1582.5513439468493
4712,Ca0.18Co3.94Ni0.06Sb12.40,450,-0.0001452179242284165,5.046736387170219,0.2549749606062421,139829.18931227687
14931,Tl9BiTe6,450,0.00019740110246467825,0.4242840650315087,0.6165591032448973,14020.64953681245
14933,TlSbTe2,450,0.00014443471210270358,1.097469047489326,0.3616245228643306,36851.38274725038
14935,Bi2Te3,450,0.00019559702774225757,1.5382354373034426,0.6927323246371077,61894.38468055079
14936,(GeTe)1x(AgSbTe2)x,450,0.00013212214139863692,1.5385743211421072,0.5311453129670531,104032.27873900744
4711,Ca0.18Co3.97Ni0.03Sb12.40,450,-0.00015040471182715305,4.7367337897663315,0.36906115282671775,156035.7315193539
4492,Cu3Sn0.15Sb0.85S4,450,0.00010460403554358515,2.716052480572349,0.06474949705072983,33338.3264349005
4490,Cu3Sn0.05Sb0.95S4,450,0.00028493585981355536,2.5469492007551677,0.057825106596778426,3525.297163899261
4230,CuGaTe2,450,0.0003167850940895091,3.632424459379041,0.09519507862621562,8662.919454390301
15202,Cu29Ga22Te49,450,8.164934025897001e-05,3.4946932749216266,0.013957247371573972,17743.73593418862
15204,Cu27Ga25Te48,450,0.00013368053952290385,3.333085885059458,0.10432287483899894,34622.74067302088
15208,Ag0.04PbTe,450,-0.00030261301667069783,1.5518990453207586,0.33239576288729183,12994.231439963689
15209,(Ag0.01PbTe)0.945(Ag2Te)0.055,450,-0.00028576757347896536,1.1093662523120256,0.5222011250947198,15021.692457007022
15211,(Ag0.03PbTe)0.945(Ag2Te)0.055,450,-0.0003005921545796842,1.0809601885873383,0.44266910430600026,11301.523752798656
15215,In0.997Te,450,0.00017922328253767566,0.5422386947081657,0.6265532078464527,27280.255646463163
15216,In0.995Te,450,0.00022364347054290565,0.6198391057588453,0.2893674131498629,9225.477818833424
15217,InTe,450,0.0002566797143511173,0.6111789594902649,0.1542117987690182,3456.203428186611
15210,(Ag0.02PbTe)0.945(Ag2Te)0.055,450,-0.00029649363195803153,1.0413554702970182,0.5242015328118401,13795.539531705374
4231,CuGaTe2,450,0.00035015285161028967,4.69351107099205,0.0530026693836515,4213.323600784975
2386,Ba8Cu4.5Si6Ge35.5,450,-5.675195395359127e-05,1.7226541074017234,0.08943965093766604,112337.19321652477
2385,Ba8Cu4.5Si6Ge35.5,450,-6.229643185104081e-05,1.0240420458776356,0.08247751624566746,50008.91418312126
2382,Ba8Cu4.5Si6Ge35.5,450,-6.476211316169781e-05,1.2319064119211376,0.12062420083532464,77615.3048906246
15322,TiO1.90,450,-0.00023136824287576241,3.2454770345773727,0.051765938454519364,6987.206578923405
15383,MnTe2,450,0.00032981594454707815,1.4702556335576662,0.04842023045055999,1169.812340777033
15388,Mn0.96Ag0.04Te2,450,0.00018236003252003065,0.8864989793955217,0.17760323904820444,8624.185416595239
2384,Ba8Cu4.5Si6Ge35.5,450,-5.4730564980862624e-05,1.8911472541686167,0.08278457206815126,108962.34259067824
2380,Ba8Cu4.5Si6Ge35.5,450,-8.039524349821224e-05,0.7408559629638205,0.07599003187338127,20163.909463649
15384,Mn0.995Ag0.005Te2,450,0.00026680318534124243,1.3335475943992394,0.05740007048592841,2239.007260832756
15321,TiO1.83,450,-0.0001143842823228434,2.953204568563124,0.048783433064597065,22855.916980741582
15320,TiO1.77,450,-6.642040692672519e-05,3.2553359411606526,0.03738719567943917,58251.617302003964
15282,Bi0.48Sb1.52Te3,450,0.00019665571329410743,1.5349565366584599,0.5375656138847915,49626.994799281136
15283,Bi0.48Sb1.52Te3,450,0.00019301609232944423,0.917466021903378,0.6391366073544039,38917.319473461655
4347,Yb0.05Co4Sb12,450,-0.00020871160921738508,5.1525080911116525,0.03812735638092491,10755.823448861398
4348,Yb0.1Co4Sb12,450,-0.00019022744112502383,3.6797389796163023,0.265633702139164,69431.54397395831
15089,La2.74Te4,450,-9.425071555777095e-05,1.1354891408327232,0.14484917340269415,35829.19679052537
15092,La2.72Te4,450,-0.00020735385841953212,0.6605666726456536,0.27038575649787616,9231.318016622901
4482,CeyFe4Sb12,450,0.00010845933600445793,2.75146562350065,0.37949002138951865,186194.33015981
15077,ErB22C2N:ErB4,450,-1.6635004295394087e-05,1.9483441014532388,2.184954722698724e-07,3.4186115406304327
4489,Cu3Sb1S4,450,0.0005229466705534548,2.4071727643001477,0.024296975430525662,423.0172188891955
15069,CaB6,450,-9.046597621951188e-05,21.174508570618116,0.05533251119660805,277227.3021036316
15070,CaB6:SrB6=75:25,450,-8.703633199355255e-05,13.45893690670498,0.06591863631439554,230941.599999615
15071,CaB6:SrB6=50:50,450,-9.209674789823459e-05,12.320065055924973,0.0774606045704802,228244.25045323747
15072,CaB6:SrB6=25:75,450,-0.00010281925600111204,15.40562358332721,0.06419549395479601,184665.70285874532
15073,SrB6,450,-0.00011511312745903999,21.989325046274534,0.05114323845316378,170430.73815844412
15075,ErB22C2N,450,-1.0674487007558387e-05,1.4073241554751172,5.672076662025186e-09,0.15567887850593326
4491,Cu3Sn0.1Sb0.9S4,450,0.00010683664185160628,2.646473960997072,0.028117079188953044,12189.645533932373
4479,Cey(Fe3.6Ru0.4)4Sb12,450,9.807505002905833e-05,2.53699512470536,0.3102204793242923,190715.6793149489
482,Fe0.94Zr0.06Si2,450,2.376911265668248e-05,9.14061983445241,0.0010764655090195418,38983.88166253127
480,Fe0.98Zr0.02Si2,450,9.136088997692249e-05,8.940071072216167,0.0006024505560707896,1217.1604192686564
15131,Tl8.33Sn1.12Bi0.55Te6,450,0.00010673391190699003,0.5228456109291244,0.39525330968728095,41173.00500391149
4478,Cey(Fe3.7Ru0.3)4Sb12,450,0.00010367769746768176,2.415765776586416,0.3929518723605644,185967.91948770767
4477,Cey(Fe3.8Ru0.2)4Sb12,450,0.00010560815261576732,2.541582123612018,0.3903852814198349,191182.90458407093
4476,Cey(Fe3.875Ru0.125)4Sb12,450,0.00010603785019117845,2.5916021069033777,0.3758498772359261,188558.4308474885
4475,Cey(Fe3.925Ru0.075)4Sb12,450,0.00010914937895623574,2.664251404602544,0.3971900413879033,189693.4025071395
15112,AgSn18SbTe20,450,6.445535348261279e-05,2.8845877035584926,0.15976147352328626,239656.21749965023
15122,Tl9Sn0.6Bi0.4Te6,450,7.001188175230533e-05,1.098124070344254,0.19167388691915996,93435.22883903698
15125,Tl9Sn0.2Bi0.8Te6,450,0.00012761377490710818,0.8803633386377357,0.34973104244104003,41036.78922115426
15127,Tl8.67Sn0.50Bi0.83Te6,450,0.00014767757115978435,0.487683408925252,0.5090163083787282,25854.06054630866
4480,Cey(Fe3.5Ru0.5)4Sb12,450,8.824954973952467e-05,2.7111651825797543,0.2569597211121876,192836.92456674128
14470,CuGa0.99Zn0.01Te2,450,0.00013005939750732992,5.168631465152808,0.04821938422704331,35484.94425050858
14467,La0.9Ca2.1Te4,450,-6.713951436938302e-05,1.5620536652070154,0.1005520065747852,77197.96862031569
14477,AgSn4SbTe6 ,450,0.0001042108814226865,1.92575315857258,0.4174852337128057,158462.9038586906
14478,AgSn4SbTe6,450,0.00011015897823764776,1.8013229372851811,0.4674704626434795,148416.23620616572
14479,AgSn4SbTe6,450,0.00011534707893213765,1.7200390919800497,0.5047133149464953,140050.17115624167
14480,AgSn4SbTe6,450,0.00011480196686827075,1.7638378855608081,0.4832351684912081,143300.02660404466
14481,Cu2Se,450,0.00016147014412506928,0.5138558630246179,0.8561698820704458,43418.64611681035
14482,Cu1.98Se,450,0.00011816204951524067,0.8232849750851281,0.4656797722394402,60570.746631186805
14483,Cu1.95Se,450,8.998829875206364e-05,1.0370448356496922,0.3022001766417805,81696.20108045019
14466,La1.9Ca1.1Te4,450,-7.736452158475575e-05,1.1600077937645523,0.12141282399274778,60990.42500943338
14464,La2.5Ca0.5Te4,450,-0.00011094181593686394,1.1095963496246608,0.13621499163418374,30784.558828556583
14465,La2.2Ca0.8Te4,450,-9.938443870743371e-05,1.1435506265996007,0.1345359424409462,34613.4133883407
14455,SnTe ,450,3.8551435071124924e-05,6.851218412841611,0.05820445553597192,522220.79095250537
14457,In0.015Sn0.985Te ,450,9.923634438855158e-05,3.7623320645218237,0.26768050809608823,220346.97180034828
14458,In0.03Sn0.97Te,450,9.795488627803728e-05,3.3987464994431926,0.2958306586787676,223236.9556137524
14460,In0.005Sn0.995Te,450,7.070521186028879e-05,3.9907761073843635,0.17841757452731338,311549.1964603501
14461,In0.015Sn0.985Te,450,0.00010626920422190586,3.2986327242742366,0.22748241723752216,137219.79396861038
14462,In0.03Sn0.97Te,450,9.563823829031196e-05,2.6864051785800758,0.2344776321981145,143364.71944640315
14463,La2.8Ca0.2Te4,450,-0.00019458518451095555,0.8321131799512803,0.1027827958204388,4806.728232610074
14456,In0.005Sn0.995Te ,450,6.928255821273929e-05,4.986351151402987,0.15381990584260713,352700.85066560033
5148,Sr0.3Yb0.1,450,-0.00013595012941665306,3.9378249225313455,0.3311129971906663,146779.14071790036
5147,Sr0.3Yb0.2,450,-0.00012248810972500794,3.816891985821023,0.4021154732289916,221378.15523344613
5146,Sr0.3Yb0.3,450,-0.00010884062043949371,3.710349549526081,0.3884364061503512,261237.20498818863
5145,Sr0.3,450,-0.00016037505830566074,4.487557057993619,0.23580856700964997,107070.79957784909
5143,Sr0.26Co3.95Ni0.05Sb12,450,-0.00012425789548848446,4.29645452000138,0.3862223662197091,233760.3884203702
5142,Sr0.21Co3.92Ni0.08Sb12,450,-0.00013748422622644489,4.135675313299294,0.36813661227009853,164319.65630871445
5141,Sr0.23Co3.95Ni0.05Sb12,450,-0.00012924021617861608,4.187480960557772,0.3693951404733183,192537.97392456047
14512,Cu1.85Ag0.15Sn0.8In0.2Se3,450,7.142974973598117e-05,2.1824020713869405,0.08993973238831376,79018.44210939838