sampleid,composition,Temperature,Seebeck coefficient,Thermal conductivity,ZT,Electrical conductivity
14178,Ag0.7Cu0.3TlTe,350,0.00039664294261084734,0.3582129438158878,0.14887163435465645,1047.3590074770605
14179,Ag0.6Cu0.4TlTe,350,0.00032452936896326434,0.3878188254865605,0.2198500185059314,2415.690598217185
14204,Tl9Sb0.97Sn0.03Te6,350,0.00012542062476043723,0.6442331897731797,0.3716627095691887,41314.7193005357
14206,Tl9Sb0.9Sn0.1Te6,350,0.00010916714052127615,0.6837043184722715,0.32234379819520165,49707.5712567072
14203,Tl9SbTe6,350,0.00012478912135232843,0.6594346125788935,0.3827333454075504,45132.663838856555
14202,Tl9Bi0.85Pb0.15Te6,350,9.864744140700466e-05,0.8377727819463338,0.30597087129220124,73141.98192631255
10392,NaxCoO2,350,7.457674938898946e-05,2.019439276355417,1.0990565863826051e-08,0.011401865358783065
17151,Zn0.97Cd0.03Sb,350,0.00020501483066924067,1.689441934609059,0.35720335580989937,41022.318116116345
14166,Tl2GeTe3,350,0.000208374537603806,0.2984906630655504,0.1619692386501014,3218.0760988859442
17148,Zn0.97Cd0.03Sb,350,0.00022589417720891142,1.6277777387548968,0.37349284294842106,34040.7618867371
17150,Zn0.97Cd0.03Sb,350,0.00017340808816563864,1.695278250134896,0.2905896969198961,38228.22319842706
14207,Tl9SbTe6,350,0.00012654121756183292,0.6615469585758689,0.3827548480854347,44751.55907154156
17149,Zn0.97Cd0.03Sb,350,0.00020153560461859515,1.8291222502893596,0.3708372867479683,45407.997238590186
14205,Tl9Sb0.95Sn0.05Te6,350,0.00012431391335271863,0.6755913227144116,0.316507623499388,38609.23457896453
14201,Tl9Bi0.9Pb0.1Te6,350,0.00010836135092521044,0.7507121099456733,0.3527217620836819,64648.11427822046
14200,Tl9Bi0.95Pb0.05Te6,350,0.00013292662878662892,0.5244163100957153,0.5102526206274867,45081.63464855005
14199,Tl9BiTe6,350,0.00021721629184270175,0.4553873706290308,0.5690637721949289,17066.700736153703
14198,Tl9Bi0.85Sn0.15Te6,350,0.00011833093884390559,0.6988423033979003,0.3279264632163917,44330.609542594124
14197,Tl9Bi0.9Sn0.1Te6,350,0.00013431564946326477,0.5663367211820404,0.4289014538954083,37207.57923759601
14196,Tl9Bi0.95Sn0.05Te6,350,0.00015836842190667633,0.5444197910450113,0.4984467710961384,30332.20063897538
14195,Tl9BiTe6,350,0.0002184932635558185,0.4540278482265107,0.5745455638673708,16301.232828509004
14194,CuIn0.9Cd0.1Te2,350,0.00012803900945090684,3.614682508980708,0.06826022215572533,42056.26209232603
10388,NaxCoO2,350,0.00011914913218989189,1.6257709233432205,2.461217367606727e-09,0.0008053033608259983
14191,CuInTe2,350,0.0002213245579616842,4.891521805750805,0.03234194950218708,9748.14330228492
14192,CuIn0.98Cd0.02Te2,350,0.0001925618956206317,4.514154141202697,0.06713742474205481,22467.66563369771
14193,CuIn0.95Cd0.05Te2,350,0.0001651321458373484,3.988767415488645,0.06383501855966893,25385.05802778619
14208,Tl9Sb0.97Pb0.03Te6,350,0.00011015081771780828,0.7515694914236241,0.3129168872449075,53542.34573334146
17164,Zn4Sb2.9,350,0.00013587271716163923,0.6497155145020492,0.27376589677748475,30432.818830384083
17163,Zn4Sb2.8,350,0.00010442287027678358,0.7965311877336627,0.1256260738392505,24548.640888521208
14688,GaPd2,350,-1.07935318386706e-05,44.03518643348561,0.0039654926625531375,4282543.586346337
14687,GaPd2,350,-5.529145351969117e-06,21.973927613858518,0.0010218111956412585,2098429.0412484324
14241,Bi0.5Sb1.5Te3,350,0.00020150769752464982,1.1262995523110042,0.9894919879543576,79467.01913835491
14240,Bi0.5Sb1.5Te3,350,0.00020302468236373632,1.2887853851036046,0.8687990276842519,79636.91281486666
14239,Bi0.5Sb1.5Te3,350,0.00020155480986563037,1.2219710024952943,0.9341724768227756,81408.70678997612
14121,CuInTe2 ,350,0.00016873638915699575,54.348035341893,0.0040453642909920855,23054.471647852613
14122, CuIn0.75Ga0.25Te2 ,350,0.0001772444954616608,48.228920023887504,0.0045418344477803395,19646.667079023795
14123,CuIn0.65Ga0.35Te2,350,0.00014452554968304371,43.787055184281996,0.005424735564555831,36544.055560199085
17165,Zn4Sb3.0,350,0.00012890728490842212,0.8548808719794111,0.15341497633946385,24283.637249511048
17061,(Ag2Te)54(Sb2Te3)46,350,0.00026173377369828496,0.5354969885447077,0.5465050795356061,12242.953291710352
17062,(Ag2Te)52(Sb2Te3)48,350,0.000267083421829224,0.5592553330678727,0.5909302378037607,14212.700360145182
17063,(Ag2Te)50(Sb2Te3)50,350,0.0002694966488763066,0.5793233194984999,0.6256267905179278,14859.756062303712
17064,(Ag2Te)48(Sb2Te3)52,350,0.0002538399893828916,0.5718541598317225,0.6714804625694536,17179.36160555308
17065, (Ag2Te)46(Sb2Te3)54,350,0.000217316471144541,0.6014999545156614,0.698550460156316,24880.35719648088
17066, (Ag2Te)44(Sb2Te3)56,350,0.00021061166655066832,0.7933570629952565,0.7042485994960309,34777.66080807564
14124,CuIn0.5Ga0.5Te2,350,0.00016186252568928922,45.841669940702,0.0030594581649024647,15294.81678493878
14219,Mg2Ge0.98Bi0.02,350,-0.00024364834557251769,3.9237898548246166,0.035566908908698125,6919.94428347026
14142,Bi2Te2.85Se0.3,350,-0.00016940187761805783,1.028993335167725,0.5253088404508414,54853.924061683516
14143,Bi2Te2.85Se0.3,350,-0.00017390934656288682,0.6335654715635917,0.3446754675028199,20373.092422879286
14144,Bi2Te2.85Se0.3,350,-0.00017220102828292936,0.8039264188443638,0.4728429139123878,37766.05388214671
14145,Bi2Te2.85Se0.3,350,-0.00016683070095020483,1.1061148559274212,0.4997806574897621,57305.95782692116
14146,Bi2Te2.85Se0.3,350,-0.00014447071112901,1.3471936266289295,0.4345288511460645,81799.56917500272
14147,Bi2Te2.85Se0.3,350,-0.0001395278599924015,1.2996709449641075,0.4535159066907329,85314.4299766007
14148,Bi2Te2.85Se0.3,350,-0.00015911386210332087,1.1835458823966931,0.4873736378779374,65911.94598164702
14149,CufeInTe3,350,-0.00038162501763660585,4.2544532137245135,0.08763432627426063,7346.411016711289
14210,Tl9Sb0.9Pb0.1Te6,350,9.117198767127446e-05,0.8008603431676242,0.2581096440052395,65814.4280438952
14223,Mg2ge0.98Bi0.02,350,-0.00024321256321306332,3.929834504180129,0.5458652432169855,103614.2887026462
16914,AgNa0.01SbTe2,350,0.00029305697497565255,0.4494280237573767,0.6577304796963411,9652.211745203056
14338,Yb0.36Co4Sb12,350,-0.00011079978888983502,3.5619426591536136,0.35450597818791313,294072.2788857848
14337,Yb0.33Co4Sb12,350,-0.00011544406417825364,3.4357128299299142,0.3791773195430263,281924.5141571778
16915,Ag0.99Na0.01SbTe2,350,0.0002827379633149976,0.5438741251066972,0.6954001705439337,12973.566716191279
14336,Yb0.30Co4Sb12,350,-0.00012517258882688046,3.48036597022425,0.4258757878585378,269153.9681736172
16916,AgNa0.01SbTe2Se0.04,350,0.000260734499821429,0.5832691621285748,0.6490704179122422,15607.278055200632
14335,Yb0.33Co4Sb12.2,350,-0.00014160555285367646,3.429714000946753,0.4418731279810644,213446.5698388887
16917,Ag0.99Na0.01SbTe1.96Se0.04,350,0.00027761278940600096,0.5388497953804731,0.6134255102640536,12141.659887921885
16918,(Ag2Te)54(Sb2Te3)46,350,0.00023708846762402104,0.4685960187600052,0.2362430677570147,5509.36411391867
14339,Yb0.40Co4Sb12,350,-0.00011134747085411167,3.5121096883818845,0.3596624302629027,294623.3878181162
16919,(Ag2Te)52(Sb2Te3)48,350,0.0002466259841635808,0.5770221175869262,0.659655035361666,17601.928696207473
14349,Cu2HgSnSe3.2Te0.8,350,0.0001466817515741765,0.7348151409292293,0.1201344074269664,10527.527745164847
14347,Cu2HgSnTe4,350,3.890871118015366e-05,2.4881397322069456,0.04356179661605633,199505.6003347502
14348,Cu2HgSnSe0.8Te3.2 ,350,6.534197934931632e-05,1.7517926251916918,0.07419723814103141,79686.64868871446
16920,(Ag2Te)50(Sb2Te3)50,350,0.0002235924634341793,0.5866071727677149,0.8608511750568306,28396.08604691464
16921,(Ag2Te)48(Sb2Te3)52,350,0.00022425268751345747,0.6172159444458922,0.80627690471728,28029.391946337608
16922,(Ag2Te)46(Sb2Te3)54,350,0.00019828376485023997,0.8950425446997803,0.4177666298819324,27023.638839623633
17253,Zn4.32Sb3,350,0.00014760070580665039,0.7988546611659858,0.406751201801802,43877.06404455562
17251,Zn4.16Sb3,350,0.00014798190180799958,0.7502515878900706,0.3775422157449225,38380.881853319435
14780,Mo2.6Fe0.4Sb6.75Te0.25 ,350,3.819054266578744e-05,4.604886137254058,0.03671325843062587,386306.1507340113
17252,Zn4.24Sb3,350,0.00015246040515213383,0.7670474820268565,0.4186055063194027,40447.97159890163
16930,Ag6.52Sb6.52Ge36.96Te49.00Ce1.00,350,0.00011083576152292163,1.5159935819375363,0.3844478876200438,125693.2910268443
14783,Mo2.6Fe0.4Sb6Te ,350,5.183442755640653e-05,4.771741765178373,0.04013462060747505,237028.8936217505
16929,Ag6.52Sb6.52Ge36.96Te49.00Yb1.00,350,0.0001105633493286078,1.5039158628422262,0.3894840377473454,126736.54443833078
17254,Zn4.40Sb3,350,0.00013544101050198777,0.876821375141577,0.3234826477969728,48198.83618537586
16923, (Ag2Te)44(Sb2Te3)56,350,0.00021232125184672472,0.7621289443247614,0.6849281582925382,32747.17785443269
16924,Zn4Sb3,350,0.00014580974567970383,0.7000436840383745,0.2999061025513695,26835.696858033287
16925,In0.02Zn4Sb3,350,0.00014347623536224228,0.8386452798625229,0.2456504280436556,29132.923878343823
16926,Pb0.02Zn4Sb3,350,0.00015280859674174412,0.6608620414312091,0.4664314262483914,37919.75352551115
16927,Ag0.02Zn4Sb3,350,0.0001140169661382842,1.3168181281405278,0.22343649323462605,62799.37854498589
16928,Ag6.52Sb6.52Ge36.96Te50.00,350,9.922919730486412e-05,1.5514502911685717,0.309202629315641,129952.30651880885
10179,(FeSi2)0.825(TiB2)0.175,350,-7.487602769599897e-05,6.432528371619674,0.010622838646504066,34823.198500506915
16879,Zn4Sb3,350,0.00013165634874596108,0.8652932156714958,0.3477181124883848,49186.606416873205
10182,(FeSi2)0.8(TiB2)0.2,350,-4.9272474253565806e-05,7.420048804330977,0.006308899194311982,55091.36881813909
16880,Zn4Sb3,350,0.0001385709051526447,0.871145884059663,0.3574984671026761,46001.19957794954
16881,Zn4Sb3,350,0.00014913797373031478,0.7493375103943718,0.3895150046410784,36649.3476880526
10184,(FeSi2)0.745(TiB2)0.255,350,-1.9423223681182016e-05,8.281074132982571,0.0019529531461743449,122480.74774963275
16878,Zn4Sb3,350,0.00012560804069541978,1.0684587307619189,0.2962032301818153,57812.636035631804
10187,FeAl0.05Si2,350,0.0002631451996115749,7.046503348423662,0.024239811216290773,7047.643827956499
16882,Zn4Sb3,350,0.0001507205921742818,0.7347237889030953,0.4081652796846647,37156.958839688894
10177,(FeSi2)0.85(TiB2)0.15,350,-9.484104231962224e-05,6.29642518353756,0.01487245903823264,29745.148934192814
16871,Zn4Sb3,350,8.249856382745193e-05,0.8893929355534438,0.23820372638664974,76709.52105357715
13953,Cu2Zn0.2Fe0.8GeSe4,350,0.0001619076489983509,2.1675998534635634,0.023827324046655725,5629.263870636322
13954,Cu2Zn0.1Fe0.9GeSe4,350,0.00017101176248501056,2.327101838478774,0.027144186810215368,6171.2368463302255
13955,CuFeGeSe4,350,0.00021296031885194349,2.5486114930762525,0.02704347965785693,4342.109658914309
14367,Ag2Te,350,-8.517916174195668e-05,1.1632351347658827,0.33958945288174663,129885.2859484732
16874,Zn4Sb3,350,0.0001328835586088078,0.9541369182140303,0.15677625710025328,23882.228357158918
16875,(Zn0.999Pr0.001)4Sb3,350,0.00013205806023665573,0.8297372367739798,0.16836944479646782,23048.85827008809
16876,(Zn0.998Pr0.002)4Sb3,350,0.00013361839476083828,0.7997074472831034,0.22167680102583354,27628.749879544124
16877,(Zn0.997Pr0.003)4Sb3,350,0.0001330055623028859,1.1148912391647587,0.1384312810887926,24060.05882936239
10521,La0.1Sr0.87Yb0.03TiO3,350,-0.00010434156773305872,6.2116071642347785,0.0343777864453355,45956.35564115458
10563,"Bi2(Te,Se)3+Al2O3",350,-0.0002094645126707749,0.8640590285506755,1.0962822089578408,61684.609965343494
10562,"Bi2(Te,Se)3",350,-0.00019350393782853478,0.8768285628459329,0.9515885474701552,63667.271169096995
10561,"p-type (Bi,Sb)2Te3",350,0.00022593979562547819,1.2997595044022552,0.941546792722692,68493.82229822934
16893,Zn4Sb3,350,0.00012208368910013258,0.7549268004232909,0.3658601195216789,53131.44431350542
16894,(Zn0.995Pb0.005)4Sb3,350,0.00013631808131496165,0.8378039923196808,0.4729637899665749,61231.12077887455
16895,(Zn0.99Pb0.01)4Sb3,350,0.00012910480491128395,0.8285100829510823,0.3921313219653122,56943.211279874944
16896,(Zn0.985Pb0.015)4Sb3,350,0.00012883317423747286,0.7988433463786194,0.39915118785376064,56846.539871622204
16897,(Zn0.98Pb0.02)4Sb3,350,0.00011382843218189571,0.6956043879730979,0.2298805786775637,36873.271233459134
13972,Cu2ZnGeSe3S,350,0.000430526090829821,2.045100037094877,0.003025057480353691,95.36328259520808
10198,(FeSi2)0.7(TiB2)0.3,350,-1.7181745561793882e-05,9.179230351176773,0.0015398398553637099,136797.83163915446
13977,Cu7PSe6,350,0.00013603525463011572,0.30970817748440993,0.029895511712050318,1429.5115608692834
10520,La0.1Sr0.89Yb0.01TiO3,350,-0.00010205938173242854,6.889643372833206,0.04417280148106058,69572.11269449379
16979,Zn4Sb3,350,0.00014412761858603572,0.7545680768696785,0.4269470624752233,42856.88310718043
16980,Zn4Sb3,350,0.00015062948219766924,0.7711545882910824,0.4072661973870769,39696.13883340797
14050,(Ge0.8Pb0.2)0.9Mn0.1Te,350,8.294654014117635e-05,1.835102098998448,0.13876723995870133,125027.40592151563
14052,(Ge0.8Pb0.2)0.82Mn0.18Te,350,0.00011868706067046127,1.4095506005836602,0.2644077331334854,75100.10154508491
14051,Ge0.8Pb0.2)0.87Mn0.13Te,350,8.718957990191442e-05,1.561958685667443,0.1808406278052147,113387.94002991804
10483,MnSi1.73,350,0.00014367051383000725,3.6833277403190015,0.10007985171649436,51025.078638226485
10484,MnSi1.73,350,0.00014114193316473102,1.9560443895901132,0.19337062508322286,54248.66311084708
14041,AgSn10SbTe12,350,7.561835612324487e-05,2.4462345542134316,0.16925698749060294,211833.64289942602
14042,AgSn4SbTe6,350,9.51731502222606e-05,1.9219597741084355,0.28339692212014633,171630.26766519714
17221,Zn4Sb2.92In0.08,350,0.0001416400012631831,0.9153006306987832,0.3087867938793581,42833.75862903145
14043,AgSn2SbTe4,350,8.289252099484432e-05,1.585172176266541,0.23967668124968936,154027.06801946828
17220,Zn4Sb2.94In0.06,350,0.00014873280546912694,0.8489827258161378,0.3446854572388735,38231.98386435698
17218,Zn4Sb2.98In0.02,350,0.0001430071773060185,0.7686464811968393,0.3165095162191374,35422.93713962083
17217,Zn4Sb3,350,0.00014391902009427791,1.0857994350829243,0.17686419681460325,25003.4291634544
10215,(FeSi2)0.95(TiB2)0.05,350,-0.00014475921196552044,5.145935360497378,0.02247853541954681,15771.45907316768
14284,CuIn0.9Mn0.1Se2,350,0.0004513919712447453,3.6680633804738263,0.005145644900902385,258.1001348946637
14283,CuIn0.95Mn0.05Se2,350,0.00038602642928999725,3.6967539351265546,0.004710164634511752,322.52679245384684
14282,CuInSe2,350,0.00015759151560611564,3.9894382980434377,1.3205019132543065e-05,6.999840645686513
14773,Mo3Sb7,350,2.0680484364328836e-05,5.892612293819207,0.012244438756623816,560061.4907260044
14772,Bi2Te3,350,-0.00014943638633120707,1.0299451251177203,0.6459885427878267,84313.89760159233
14771,Bi2Te3,350,-0.0001502624147202066,1.025892368213707,0.6302092471303096,83327.93209498291
14285,Cu0.9In0.9Mn0.2Se2,350,0.0005046609152111972,2.923925116001295,0.004884963279171402,159.12479483534486
14065,SnSe,350,-0.00023922096303122714,0.9494278736876252,0.08699513880929323,3631.595803336749
14286, (BiSe)1.09TaSe2/TaSe2,350,-7.589665816944511e-06,4.364315156247823,0.0019702427737845647,426503.3982296711
10216,FeSi2,350,-0.00016918868851146114,4.460801975668875,0.02570230915396675,11443.90898863098
14055,AgPb18SbSe19.928Cl0.072,350,-0.00013185988639455258,1.2828611310019535,0.21110603988869814,38556.828226470934
14056,AgPb18SbSe19.856Cl0.144,350,-0.00012274453110712097,1.4000829150107068,0.23478572314251944,52980.70874999708
14057,AgPb18SbSe19.73Cl0.27,350,-0.00013111642614046002,1.359609854352512,0.2588618538163812,52834.14028977857
14058,MgAg0.97Sb0.99,350,0.0002666577889766477,0.7613729981954273,0.8536548756947835,25927.394408590248
14059,Mg0.995Na0.005Ag0.97Sb0.99,350,0.00024813866028651726,0.7859079048435633,0.9021321033889262,32454.740423294268
14060,Mg0.9925Na0.0075Ag0.97Sb0.99,350,0.0002354917172212334,0.7911114950582523,0.9121075846087656,37220.015084021434
14061,Mg0.99Na0.01Ag0.97Sb0.99,350,0.000243218285044203,0.7964241860597598,0.8890347057452769,33922.7359506292
14064,Bi2Se3,350,-8.077462404764506e-05,0.4483010220079321,0.08514449520906914,17518.028713377586
14287,(BiSe)1.09TaSe2/TaSe2,350,-1.308936684321861e-05,2.993179259097287,0.0040480975079624755,202059.0789057482
13951,Cu2Zn0.4Fe0.6GeSe4,350,0.00017132647148238608,2.1398422296857325,0.02353094471793174,4901.21926742306
16946, AgSbSe0.02Te1.98,350,0.00026421647690012584,0.5563394722625807,0.7095758365263457,16012.968119146984
16947,AgSbSe0.04Te1.96,350,0.00024736298991855527,0.5681417610077635,0.5727073337642707,16051.748076044476
16948,Zn3.6Sb3,350,0.00014240689288703314,1.4383670004007354,0.07703025642461811,14166.250811541668
14315,PbSe,350,-0.00012801608886352128,1.4199659667142333,0.02890328771828426,7307.998696735354
16949,Zn3.9Sb3,350,0.00012970882102389468,1.1592201095873191,0.14291920960980126,26040.681144872207
16950,Zn4.2Sb3,350,0.00014355317231309444,1.166490287623596,0.2890613183680625,46239.247345163945
14008,Cu2Se,350,0.00013024139685168434,0.7288225420105138,0.4839943719534043,71202.4787386687
14545,BiSbSTe2,350,-0.00018607576288370348,1.6733767206854369,0.0717822556392643,10994.397530454953
14313,PbSe,350,0.0003456174828954517,1.3767365317207296,0.09358577296988436,2927.944622615096
16945,AgSbSe0.01Te1.99,350,0.0002809644602132628,0.5409809873212155,0.717835383766965,13662.031020415334
16944,AgSbTe2,350,0.00027279401739863486,0.5661583890521722,0.6402895113365544,14224.833474962876
16940,AgPb20SbTe20,350,-0.0003241594607596359,1.3401303698218667,0.04891295240891647,1602.1892480513052
14004,Cu2Se1.01,350,9.3063897113938e-05,1.0245344927988145,0.294832586845135,115204.71537437286
16975,Zn4Sb3 ,350,0.0001371624272561992,0.7589240354187131,0.37142500691599056,42855.129542197166
14030,(Pb1Te)0.15(GeTe)0.85,350,4.809500927944011e-05,4.542687822939149,0.04515947250654706,301281.0867440719
16960,Zn4Sb3,350,0.00015940254453280465,0.8064350486782719,0.4203303425398223,32972.19028091377
17231,Zn4Sb3,350,0.00012688374310953444,1.0701027973634654,0.29269973867432264,59334.35787736832
16964, Zn4Sb2.94In0.06,350,0.00015693842749476728,0.9465066239327792,0.19612867771699527,21420.04592706868
15877,In4Se2.9Te0.1,350,-0.000370859841179359,1.1216786884794487,0.036525559384866964,914.6532157526584
12991,Cu3SbSe4,350,0.00039819430719586737,2.556149602909542,0.1316289392049701,6365.758997672087
12990,Cu3SbSe4,350,0.000382103738787788,2.8253881140645296,0.07436233665382562,4640.952514893706
12988,Cu3SbSe4,350,0.00035899675827303284,0.8482607844177664,0.062063708641011024,1359.6488475065548
12992,LiZnSb,350,3.296087771361349e-05,5.45795979843412,0.016217786757716138,232136.40455466602
12993,LiZnSb,350,4.728319341245353e-05,5.167493175189684,0.03866787614416768,257432.5076270811
13006,Cu1.975Sn1.025Se3,350,0.00039142217757339977,1.7032421575415446,0.07392079843039354,2514.2179260847893
13005,Zr3Ni2.9Co0.1Sb4,350,0.00017702464053845734,2.3831052249240776,0.27573453868324466,56332.176126337225
13018,ZrHf2Ni2.7Cu0.3Sb4,350,-0.00015642437600728594,2.496859842398365,0.21363704768590674,55370.759613193935
13017,Zr2HfNi2.7Cu0.3Sb4,350,-0.00016212256526745522,2.8195112084286325,0.3367885641007947,97762.73947584248
13015,Zr3Ni1.7Pt1.2Co0.1Sb4,350,0.0001330205162291344,1.8779046385634988,0.273986655885256,75337.41132104254
13013,Zr3Ni2.6Pt0.3Co0.1Sb4,350,0.0001612376098856136,1.9420918498820292,0.2926449066478176,58810.02583353988
13019,Hf3Ni2.7Cu0.3Sb4,350,-0.00013006864953692176,3.54089208285388,0.1842116099579348,104097.17307138404
13041,Ca5Al1.95Mn0.05Sb6,350,0.0001698138200453712,1.3434039892510967,0.08467822547256419,11469.773239210017
13038,In4Pb0.01Sn0.03Se2.9Cl0.02,350,-0.00021637513736059497,0.8724900173395348,0.14697399372123646,8958.332695557836
13032,Yb0.5Eu0.5Cd2Sb2,350,0.0001851034707454522,1.4906561941499132,0.18232525631425825,24931.584476837368
13031,Yb0.75Eu0.25Cd2Sb2,350,0.0001692452038353446,1.6075365627937337,0.24853415683558802,42224.69147277638
13030,YbCd2Sb2,350,0.00019661530556253177,1.7690995791872397,0.18371484265605129,26519.708162069892