sampleid,composition,Temperature,Seebeck coefficient,Thermal conductivity,ZT,Electrical conductivity
13055,Cu1.7Bi4.7Se8,500,-0.0001475302547219225,0.5555654046056846,0.16236293763465615,8744.529129000199
1835,MnSi1.75,500,0.00016981256498086882,2.2770231950131152,0.2695370730364341,42567.32059503702
5145,Sr0.3,500,-0.00016632181976360241,4.307875509580663,0.2783824142666407,102296.46458493176
16947,AgSbSe0.04Te1.96,500,0.00024103242267431362,0.5818152280655425,0.9478475032487376,19447.088403445432
10191,Fe0.95Co0.05Si2,500,-0.00017044261613965032,4.237060544517373,0.0585454236094637,17077.772937320093
13060,Cu1.7Bi4.6915Zn0.0085Se8,500,-0.00012611177760690038,0.6139208985705885,0.15580862970037526,10025.845033561025
543,Ba24Ga4Ge96,500,-3.867976512854119e-05,3.1826008382718967,0.04336066242542247,189642.5596975039
13061,Cu1.7Bi4.6745Zn0.0255Se8,500,-0.00013595696449922618,0.5812640611426763,0.14924483726076476,10808.658723864157
6017,Eu11Cd5ZnSb12,500,6.749565124366183e-05,0.8768515221949731,0.07739129599673275,27064.664585003607
13062,Cu1.7Bi4.6915In0.0085Se8,500,-0.00012881149036782626,0.5430191089576409,0.1365300097361639,8607.80169662301
13063,Cu1.7Bi4.6745In0.0255Se8,500,-0.00012863341734485904,0.542345784813089,0.13397672106075076,9292.3942064928
14035,(Pb0.85Yb0.15Te)0.15(GeTe)0.85,500,8.132837716462584e-05,3.201510709034537,0.25641567670917104,203473.3331920149
9670,SnBi2Te4,500,8.751380277341475e-05,1.234200823530577,0.21478920994376555,63562.85082715398
13064,Cu1.7Bi4.7Se7.92I0.08,500,-0.0001294698882341823,0.5166848609560484,0.20588403785878867,12805.831074897373
16210,Tl9SnTe6,500,6.078681761649689e-05,1.4351521519158932,0.1270773677053278,107649.49042369977
13065,Cu1.7Bi4.7Se7.84I0.16,500,-0.00012215722439558633,0.4983130869374874,0.11530108214146,7526.312324317747
16094,LT C/C composites,500,1.2334803880209214e-05,11.896486629874545,0.0001705345620821091,21928.04683424205
10894,Fe2VTa0.03Al0.97,500,-0.00010223227487379982,14.872136807260675,0.09149285112863867,232323.93971097353
9280,Sn0.97Ag0.03Se,500,0.00029831625670218443,1.223564742882297,0.3845047447393726,11471.047721640345
13056,Cu1.6915Zn0.0085Bi4.7Se8,500,-0.00010608506257002437,0.5609786033546295,0.171136682645134,18852.103932680733
542,Ba24Ga0Ge100,500,-3.233344766700464e-05,3.6772295865870137,0.03436371689018308,194052.5335349688
13057,Cu1.6745Zn0.0255Bi4.7Se8,500,-0.000113449888515596,0.6189331775209203,0.19382671168794705,18186.02912777441
16095,MT C/C composites,500,1.7531102745164304e-05,15.720430972467822,0.00028849996315366154,25255.363086823065
13058,Cu1.6915In0.0085Bi4.7Se8,500,-0.00011761221029539416,0.5987330649908734,0.22478962300263114,18937.07362735595
13059,Cu1.6745In0.0255Bi4.7Se8,500,-0.00010352610987603352,0.6032399379711195,0.1608137021876382,18571.99872854236
537,Ba24Ga0Ag0Ge100,500,-3.5061915133831e-05,3.3627130134501515,0.031336635430003236,189469.72177234315
13917,PbSeIn0.003,500,-0.00013760717275231935,2.065864327076101,0.468171002254978,103391.93784165119
9276,Sn0.97Na0.03Se,500,0.00022132687146382988,1.1267919824300363,0.9764924010159396,48799.867561483166
13043,Ca5Al1.8Mn0.2Sb6,500,0.00015975300358408748,1.0842943744501845,0.1600491714048244,13190.970352672119
6260,Sr3GaSb3,500,0.0002924387288854761,0.8266209058597094,0.16152403733384538,2504.445239662012
13044,Ca5Al1.7Mn0.3Sb6,500,0.00015067147036686466,1.185575158467718,0.13526283971221498,12656.951472362825
13354,Zr3Ni2.5Cu0.5Sb4,500,-0.0001085649098850636,3.5312028331293304,0.21619137448547227,114286.31346459815
539,Ba24Ga4Ag1Ge95,500,-4.156005875470677e-05,2.649439652162952,0.05234231044155388,161316.70022395632
16521,Zn0.99Sb,500,0.00033210982799647165,1.3598861993162452,0.24301800845323165,6293.341908519476
5146,Sr0.3Yb0.3,500,-0.0001168834778850868,3.6731242481824364,0.4737574073084854,246439.67015687173
13919,PbSeIn0.007,500,-9.5146780124386e-05,2.563403719285576,0.3531388616108082,199752.34254670964
13041,Ca5Al1.95Mn0.05Sb6,500,0.00018527532053355444,1.1971589201915185,0.17177574933261858,10077.115394962657
16943,AgPb20SbTe20+2vol.%SiC,500,-0.00033590022066670635,0.6581997503600817,0.4205294611396717,4814.226324222453
13918,PbSeIn0.005,500,-9.893348810034075e-05,2.565947474920576,0.39095056596723066,197554.86772076087
13042,Ca5Al1.9Mn0.1Sb6,500,0.00016975457792040716,1.125595666837008,0.16390669672077993,12667.822435273118
16860,ZnSb,500,0.00031386534075200016,1.1784256899441172,0.2994984819321572,5802.477949501685
10189,Fe0.94Co0.06Si2.00,500,-0.00017731735804997394,3.275886461286065,0.09441070885454003,17265.872561409862
16944,AgSbTe2,500,0.00027545834722550867,0.5632040999503886,0.9343933511598578,14020.861187268025
16945,AgSbSe0.01Te1.99,500,0.00027576542572586133,0.553415695987824,1.0079737839213598,14679.725557283222
10483,MnSi1.73,500,0.0001461111762885657,3.730993167852768,0.1379375178870466,48213.6467980509
13355,Zr3Ni2.7Cu0.3Sb4,500,-0.00014585857303295012,3.674059167674946,0.2498977247379783,81080.48779543437
16946, AgSbSe0.02Te1.98,500,0.0002541551729401773,0.5885420440568498,1.0672906734571093,19475.93218574056
9278,Sn0.99Ag0.01Se,500,0.00035800602257269487,1.2516102271272374,0.18440129626372032,3198.8254337609997
13045,Ca4.75Na0.25Al2Sb6,500,0.00017293698940530332,1.1101208030170022,0.2559155028033898,16623.350832115702
16520,ZnSb,500,0.00032941379345978927,1.3986863586163425,0.19352001395974106,5608.70963083666
16855,ZnSb ,500,0.0003153249910311098,1.2003570427756776,0.23740642462323586,5732.131223897108
10190,Fe0.98Co0.02Si2,500,-0.00022999672542084449,6.1403867099434235,0.018921141414620517,4392.681800307172
540,Ba24Ga4Ag2Ge94,500,-4.452011852922776e-05,2.496024912410999,0.0612488876103561,154119.22521073106
2380,Ba8Cu4.5Si6Ge35.5,500,-9.03986352218876e-05,0.7907082036863926,0.07857668252940186,16515.825065812798
16536,Zn4.01Cd0.04Sb3,500,0.00015297339797361968,0.7528975929024537,0.7689503344933448,48264.14615770442
541,Ba24Ga8Ag2Ge90,500,-5.05067305889616e-05,2.190979176816187,0.07297985817700868,133777.00586353915
13938,Cu2Zn0.8Fe0.2GeSe4,500,0.0002060968746181445,1.5129134674676674,0.062419849404121236,4446.558283393475
13609,Ca5Al1.98Zn0.02Sb6 ,500,0.0002156005870196673,0.9212587187784774,0.08136350759266654,3293.066312022327
13006,Cu1.975Sn1.025Se3,500,0.00039835685184825463,1.2147498250989959,0.1661323229805112,2150.66659412501
16895,(Zn0.99Pb0.01)4Sb3,500,0.00015945095789680018,0.768247259355793,0.7315504447222047,44157.9411801709
16894,(Zn0.995Pb0.005)4Sb3,500,0.0001622494663250243,0.7776321538701887,0.8218668185420965,49033.48240563179
13349,Zr3Ni2.95Co0.05Sb4,500,0.00018678145209480575,3.0640888157256607,0.20963851699765987,34050.434241241965
13996,Cu1.97Ag0.03Se1.009,500,0.00010369190101154527,1.1968523207014137,0.3363109664637093,78506.04703156625
13007,Zr3Ni2.7Cu0.3Sb4,500,-0.0001457794951471913,3.6727497256010166,0.2501501760385322,80917.32834029516
16918,(Ag2Te)54(Sb2Te3)46,500,0.0002469239878690043,0.537860482034378,0.31310366627491426,5510.973793694124
13995,Cu1.97Ag0.03Se,500,0.00016270997524744305,0.8109504643626451,0.48545415141177,29428.872297391543
13972,Cu2ZnGeSe3S,500,0.0003817007436504411,1.3557168842732858,0.012161437169864642,226.32779316689442
13971,Cu2ZnGeSe4,500,0.00030740976678898265,1.4693632199609217,0.016924073807653327,526.2943989770429
16917,Ag0.99Na0.01SbTe1.96Se0.04,500,0.00026067298071519426,0.5629172137597923,1.032096650002932,17084.70908057919
4723,Yb0.4Co4Sb12,500,-0.0001470703151340114,3.0688590362050627,0.6639001155193864,186270.5148309562
13005,Zr3Ni2.9Co0.1Sb4,500,0.00017490328737774138,2.303208243004705,0.3576384900384243,53600.06123385464
16896,(Zn0.985Pb0.015)4Sb3,500,0.00016137334577995128,0.7521534775470734,0.7411948628514673,43295.90493934825
16919,(Ag2Te)52(Sb2Te3)48,500,0.0002510939824415137,0.605586579974426,1.0307346009953726,19932.093515016386
13994,Cu2Se,500,0.00012372233272432432,0.9063577805878904,0.4001979321330237,47682.21180277938
12984,Ni0.06Mo3Sb5.4Te1.6,500,9.515214831637332e-05,4.390637203907632,0.183828101553118,149708.60816788822
16897,(Zn0.98Pb0.02)4Sb3,500,0.00015129557915733068,0.6598352000301313,0.5792561168510304,31730.07337540349
2378,Ba8Cu4.5Si6Ge35.5,500,0.0001786689302409254,0.5046139920576849,0.010242744650322905,305.4181057144952
14511,Cu1.85Ag0.15Sn0.85In0.15Se3,500,0.00010210467899794191,1.3129475673770998,0.3054687774059288,61620.638165051845
13010,Zr2HfNi2.9Co0.1Sb4,500,0.00014829590117030762,2.002137691587168,0.34007453220954714,60600.44197078396
9646,Mg2Si,500,-0.0004333015715898209,3.655143335160776,0.012833861674045342,571.5351795056454
523,MnSi1.74,500,0.00017399046916919086,2.1509025189213027,0.1419417669152766,20170.191082850306
6019,Eu11Cd1.6Zn4.4Sb12,500,0.00010267543623464985,0.8377220076235397,0.17862732449158514,23195.01353925186
16922,(Ag2Te)46(Sb2Te3)54,500,0.0001928695131291884,0.8289999155735077,0.5725445120966792,26039.940473025985
13011,ZrHf2Ni2.9Co0.1Sb4,500,0.00014210767666879038,1.6973824001244098,0.2958491480994602,47643.424004503875
12979,Ni0.25Mo2.75Ni0.25Sb7,500,3.7871719367380657e-05,6.408124976061652,0.06118837206767185,524270.67867894354
524,MnSi1.72Al0.005,500,0.0001832400577680176,2.3088841466608727,0.17728207745456456,24381.259097400747
10178,Fe0.98Co0.02Si2,500,-0.0002626930769368,4.904564236063034,0.029816907073875094,4238.339674086852
16893,Zn4Sb3,500,0.00015360917976121148,0.7228366990222482,0.6798032986681721,42298.06657578051
16920,(Ag2Te)50(Sb2Te3)50,500,0.0002308541926078842,0.5511876204825855,1.304025435081406,26820.306862985533
6279,Yb14MnSb11,500,8.498775468240644e-05,1.022380787732606,0.13523513647980467,36607.26131111172
16921,(Ag2Te)48(Sb2Te3)52,500,0.00023470410449180992,0.5864008498823929,1.1390158745868544,24357.20430750813
13009,Zr3Ni2.9Co0.1Sb4,500,0.00017558497288006967,2.306683410757079,0.3598656580825604,53203.08239480923
12980,Ni0.3Mo2.7Ni0.3Sb7,500,3.719793675188568e-05,7.043437219344296,0.05473063946185491,535546.7439116143
15131,Tl8.33Sn1.12Bi0.55Te6,500,0.00012110583184187735,0.5490549914850249,0.4763063254973869,36130.54352345782
16530,Zn4Sb3,500,0.00016209613736835045,1.0720945013955856,0.41806352933714935,30044.641808292246
4722,Yb0.35Co4Sb12,500,-0.00016062424279597216,2.86354581072684,0.7694764021509762,167385.4305856584
16524,Zn0.96Sb,500,0.00028185308643088793,1.2455931224729382,0.2647498149201456,6811.826322800727
13973,Cu2ZnGeSe2S2,500,0.0004051554710368368,1.2493017031784472,0.00668503081147172,101.755367093586
6281,Yb13CaMnSb11,500,8.536239808506959e-05,0.8121629184699385,0.17349621736745924,35419.670109051425
12995,Mo2.7Ru0.25Sb7,500,4.000635674295732e-05,5.427820594775686,0.06438365582140321,405685.43886879296
10236,FeAl0.06Si1.95,500,0.0001932535945174628,6.8058077976054125,0.035365026629306164,12889.275425976732
12996,Cu3Sb0.98Sn0.02Se4,500,0.00018360795940450966,1.7972601789059601,0.5086817047055242,44144.06643738591
14510,Cu1.85Ag0.15Sn0.9In0.1Se3,500,0.00011285479652225576,1.3805772228231608,0.26062924509246377,45569.661998352116
12997,Mo2.5Ru0.5Sb7,500,5.05601538790437e-05,5.133638398655601,0.08705068692291737,351767.6550998456
13990,Cu2SnSe3,500,7.851772433198463e-05,1.5197790216690894,0.10765158922270583,53789.201993399336
4725,YbCo4Sb12,500,-8.48035608730953e-05,5.1547006558404505,0.2366071863068677,322674.2334659585
12991,Cu3SbSe4,500,0.000356653559619792,1.7880944533892449,0.31491889870601625,7611.104603968029
15125,Tl9Sn0.2Bi0.8Te6,500,0.00013847507407185796,0.8742968570006078,0.4231931624357365,37866.36870071283
12994,Mo3Sb7,500,3.1765014515136026e-05,5.945879773841084,0.03922736487411922,465415.86890729686
12993,LiZnSb,500,5.77046549119374e-05,4.538138959536339,0.0701743510761417,197625.7953076298
12992,LiZnSb,500,4.057802434018767e-05,4.873027877833911,0.02748344856096964,176447.1916422743
13000,Cu2.10Sn0.90Se3,500,6.211352687572062e-05,3.0450329152035565,0.12197171282060396,167321.86336919342
12986,Mo3Sb5.4Te1.6,500,8.325684169700447e-05,4.098631877632942,0.1360992244330782,144079.0859744983
15127,Tl8.67Sn0.50Bi0.83Te6,500,0.00016256516745224121,0.5127680189053517,0.5670022452502229,22558.269734835052
11310,CuSb0.099Ga0.01Se4,500,0.0002662016860058861,1.3698236352893898,0.2459482386581548,7797.8706783978305
10889,Bi 0.5 Sb 1.5 Te 3(+0.22wt% Cu),500,0.0001403859688891077,1.0239437494245125,0.7284100383182527,75759.77756701759
13001,Cu2.05Sn0.95Se3,500,7.329523707427235e-05,1.963727103589338,0.10326178124306416,62770.828653257755
13992,Cu2Zn0.05Sn0.95Se3,500,4.1573547738369286e-05,2.919380141668372,0.057137708781845487,202200.89268583726
16916,AgNa0.01SbTe2Se0.04,500,0.0002525788429264606,0.6488184852857432,0.9398182829791306,19057.63203443485
10182,(FeSi2)0.8(TiB2)0.2,500,-6.58754083569971e-05,7.5768937230064966,0.01666085767101003,58179.75725664995
12985,Ni0.05Mo3Sb5.4Te1.6,500,8.539185182663211e-05,4.82795216715216,0.13399987564599608,149430.27209131912
13974,Cu2ZnGeSe1S3,500,0.00041216161091273617,1.3374581269942971,0.007137104300248014,112.38210323977984
522,MnSi1.73,500,0.0001678004833462934,2.2795274854616654,0.14879202323849536,24091.73420131272
16923, (Ag2Te)44(Sb2Te3)56,500,0.00021095755088032517,0.6602537279530827,0.9673614691331718,28636.56168756158
16915,Ag0.99Na0.01SbTe2,500,0.0002755151655805342,0.5815432431205347,0.9596524516018786,14639.669810652194
521,MnSi1.72,500,0.00016525186295792563,1.9672566987012448,0.13268456914946555,19116.955034943327
13608,Ca5Al2Sb6 ,500,0.0003567090056612048,1.0208276327175294,0.04208082457507775,622.7058561740331
6018,Eu11Cd4.5Zn1.5Sb12,500,0.00016880016332665665,0.7543194969650715,0.2909898617495989,16511.596369229206
11309,Cu3Sb0.995Ga0.005Se4,500,0.000281519534001668,1.5978986236681787,0.20798056473779608,7143.12453134298
5032,In0.25Co3.9Ni0.1Sb12,500,-0.00021819998217842103,2.8910338690952826,0.4598895406205457,51694.58911287434
4724,Yb0.5Co4Sb12,500,-0.00013614072736351854,3.1203711874142743,0.5892536028557187,199103.16983213977
13977,Cu7PSe6,500,0.00017598003949307418,0.3820755430201428,0.2458705783506145,6066.790189821449
12999,Cu2.13Sn0.87Se3,500,4.982787166064574e-05,3.4664485353218764,0.11129939404967527,268764.51430044475
13976,Cu7PSe6,500,0.0001773316427027822,0.3772764627342102,0.21945025155966316,4493.461361160597
10179,(FeSi2)0.825(TiB2)0.175,500,-9.17046604537124e-05,6.4983622461618795,0.02487901269592193,38448.92839239102
10181,Fe0.95Co0.05Si2,500,-0.0001601214596280191,4.279911521679739,0.053552012668674126,17878.929160721345
16914,AgNa0.01SbTe2,500,0.00027872311631257137,0.5039908379060338,0.9667602480532564,12682.012831497417
11308,Cu3SbSe4,500,0.00034157433518216624,2.0083019011750656,0.12465340844943056,4099.302214263067
13610,Ca5Al1.95Zn0.05Sb6,500,0.00017454255332536694,0.9632790123157212,0.08136350759266654,6150.101481132907
16386,Ca2Co2O5,500,0.00014902999587957538,1.793772571672712,0.045703278569841084,6341.004511785615
16877,(Zn0.997Pr0.003)4Sb3,500,0.00016197415907696192,1.0336395049643672,0.30813451016812043,22871.805615814425
14009,Cu2Se1.02,500,0.0001033966779647515,1.4959474731996607,0.3874483334469639,93478.03644571092
16876,(Zn0.998Pr0.002)4Sb3,500,0.00016336293378923546,0.7368263043072077,0.4816787276338045,25189.502672758994
13937,Cu2Ze0.9Fe0.1GeSe4,500,0.00028577744967675045,1.6113892544952204,0.049833534299640936,1966.5103470462493
6263,Sr3Ga0.93Zn0.07Sb3,500,0.0001587422082289404,0.8839844774963341,0.2863095971831173,16334.84156149092
5915,Ba0.3Ir4Sb12,500,-0.00015588829313432413,3.2296789307967013,0.24545816614824814,58981.195573045996
10185,Fe0.85Cr0.15Si2,500,0.0002495101011135812,13.429942510162007,0.014235605389424356,6141.915338106021
13936,Cu2ZnGeSe4,500,0.00030671539217419047,1.4547205388013076,0.016270153945920227,503.1877806110102
14008,Cu2Se,500,0.00017508706761476384,0.6833862858221975,0.7402965206774409,28777.183149315664
13351,Zr3Ni2.8Co0.2Sb4,500,0.00013541574084218833,2.471671242245979,0.2753410520236727,74421.5073683742
14007,Cu2Se1.01,500,0.00013373660148646675,0.8566201462245915,0.6210876972540721,50399.36178503585
13612,Ca5Al1.8Zn0.2Sb6,500,0.00012316565097409305,1.2095675308397738,0.1583165971215549,22139.888436261856
6266,YbCd1.4Mn0.6Sb2,500,0.00023755045865960953,0.6729995248941378,0.3360851177205485,7336.844150601937
6264,YbCd2Sb2,500,0.0001653372878217896,1.5218818375413492,0.4140548458735707,40587.90870647748
16882,Zn4Sb3,500,0.00017372875605455233,0.6909501830537432,0.7415775945811529,32290.95472847088
13940,Cu2Zn0.7Fe0.3GeSe4,500,0.00022680837358204806,1.517303878350969,0.04523063453941847,2668.191986125191
16875,(Zn0.999Pr0.001)4Sb3,500,0.0001614873319458613,0.7458754636279902,0.4009633723675332,21729.18037891329
6262,Sr3Ga0.95Zn0.05Sb3,500,0.00017762872594336745,0.885832758829963,0.2575879787588293,13400.01111175123
13352,Zr3Ni2.7Co0.3Sb4,500,0.00010651622811584427,2.844575769432248,0.1893083836333784,92092.63630212989
13029,EuZn2Sb2,500,0.00015184401253149108,1.8158879687326528,0.5292934452226172,85323.17032331643
13030,YbCd2Sb2,500,0.00023115019140358515,1.3699017224569936,0.44838057611986776,21552.878429355667
14013,Tl9.5Gd0.5Te6,500,4.10837251032914e-05,1.6528002019619232,0.05016825763917256,94779.10792386574
5147,Sr0.3Yb0.2,500,-0.00013001655392251484,3.747868992792352,0.4866676340186589,208793.47065950726
14012,Tl9.75Gd0.25Te6,500,3.388835578640179e-05,1.7542448285191237,0.04495281429570082,127312.23409817631
5031,In0.25Co3.95Ni0.05Sb12,500,-0.00020753350908742882,2.9532704500536764,0.6088476892292609,82173.25417093775
526,MnSi1.75Al0.005,500,0.00018844783621646554,2.5070574967615875,0.16711930304892256,23596.01128812396
16874,Zn4Sb3,500,0.0001627416762297096,0.8437389081063552,0.3784450123478778,22557.506894588038
10235,Fe0.90Cr0.10Si2,500,0.00029082836980470235,13.03137897993138,0.016933984952328767,5218.023161466405
16534,Zn3.91Cd0.04Sb3,500,0.0001800739947021679,0.6942130728275011,0.8833003970998465,36900.37538917728
16930,Ag6.52Sb6.52Ge36.96Te49.00Ce1.00,500,0.00014964272352887664,1.6000283461767186,0.8278480236902933,109204.72780788982
13943,Cu2Zn0.6Fe0.4GeSe4,500,0.00024813310758090533,1.5694692178880896,0.04172700198104537,2127.30887116376
6270,YbCd1.2Mn0.8Sb2,500,0.00016040930949133718,0.7166379545938504,0.07975628662169379,4248.8150160974765
5148,Sr0.3Yb0.1,500,-0.00014390679753289212,3.823193476475665,0.4028588851434561,138959.79109443026
12977,Ni0.15Mo2.85Ni0.15Sb7,500,3.8938366999240736e-05,6.571323062386682,0.058473959085838224,493252.75580423686
13954,Cu2Zn0.1Fe0.9GeSe4,500,0.00018420513523306365,1.6172090846013731,0.07845744431426789,7478.712854735618
6269,YbCd1.8Mn0.2Sb2,500,0.00021399698533732369,0.7037905483739659,0.5823848797188832,16646.449439288364
16926,Pb0.02Zn4Sb3,500,0.00017388582328216383,0.6713737372203594,0.8221628821257291,36512.57982640958
13953,Cu2Zn0.2Fe0.8GeSe4,500,0.00017406646547486206,1.5386581352003872,0.070811389782369,7191.9230103826685
16531,Zn4(Sb0.995Te0.005)3,500,0.0001628978227050978,0.7528505822883341,0.8042811387042518,40069.885093237834
15122,Tl9Sn0.6Bi0.4Te6,500,7.801260953241846e-05,1.1681339820443193,0.2308744266408802,87123.11145904075
14004,Cu2Se1.01,500,0.00013035760750820054,0.944535752508758,0.5906986052477754,53799.98389577494
13952,Cu2Zn0.3Fe0.7GeSe4,500,0.00018988388852733592,1.5210044316107925,0.08635629571899049,7285.8167915300355
10892,Bi0.5 Sb1.5 Te3 ,500,0.0001433059776113235,1.0558507071674763,0.2770008806629557,27278.164579180433
13338,MgAg0.97Sb0.995,500,0.00020681479412996322,0.9531542040898364,1.2741174944557003,55556.46335515746
13951,Cu2Zn0.4Fe0.6GeSe4,500,0.00019205072315043995,1.5106829862758913,0.08556640702100501,7009.30141966239
13013,Zr3Ni2.6Pt0.3Co0.1Sb4,500,0.00016375839328843024,1.9377495024515727,0.3870565676540657,55048.10421333094
13955,CuFeGeSe4,500,0.0002252555976577725,1.6444097213973836,0.07437436029753816,4820.722032322112
13012,Hf3Ni2.9Co0.1Sb4,500,0.00015587552656455946,1.7812254892920183,0.3163777088310645,45682.00183367326
5033,In0.25Co3.8Ni0.2Sb12,500,-0.0001938461187313297,2.504630049903428,0.3841660339073588,48192.77353107883