sampleid,composition,Temperature,Seebeck coefficient,Thermal conductivity,ZT,Electrical conductivity
16757,Ag0.8Pb22.5SbTe12S8,350,-0.00026619370173444943,1.0448683199739888,0.2604315284434737,11109.09498777
16855,ZnSb ,350,0.0003404687051712441,1.5632236596197489,0.09556424843827116,3682.087677628181
13925,PbSeTl0.005,350,0.00012032791053980957,1.1990734393638998,0.18370855972981304,35218.41196901564
10120,MnAl0.0063Ge0.0054Si1.7883,350,0.0001291593134754451,2.496148349733593,0.11199662884224397,47880.18752694204
13927,PbSeTl0.02,350,7.92283346829779e-05,1.2054542947241544,0.11525637839640955,59507.76007666228
14388,La0.95Sr0.05CoO3,350,0.00010252273436993626,3.349974293703218,0.02962956657169375,31355.756320881505
13914,PbSeGa0.003,350,-6.321407938303497e-05,2.7028931195485253,0.13807504529828776,230727.89137233022
13915,PbSeGa0.005,350,-6.227018648616043e-05,3.2064409977326167,0.11633082120835435,302522.60661622486
13917,PbSeIn0.003,350,-8.904569296708944e-05,2.5758380608860985,0.17546444797305938,142453.39064297607
13919,PbSeIn0.007,350,-5.538522963515944e-05,3.2113610134043373,0.0806444583377467,280529.62671137176
13936,Cu2ZnGeSe4,350,0.00030642523341897337,2.322165643835828,0.0032437369197396747,229.20375262680847
10118,Mn0.85Cr0.1Ru0.05Si1.74,350,0.00011616416497276773,2.4157422086086497,0.08867445895553165,45356.208247750605
13937,Cu2Ze0.9Fe0.1GeSe4,350,0.0002858833406370769,2.445678738533206,0.012007905533481172,1026.6464970755517
13938,Cu2Zn0.8Fe0.2GeSe4,350,0.00019103067758346678,2.192748112839918,0.014930949033089062,2563.3144297105982
13940,Cu2Zn0.7Fe0.3GeSe4,350,0.0002189085014040941,2.247101288869252,0.011550330597387623,1547.4754348209685
13943,Cu2Zn0.6Fe0.4GeSe4,350,0.00024018168757900985,2.2853299036756622,0.010595328715791271,1199.2659666142524
13950,Cu2Zn0.5Fe0.5GeSe4,350,0.00018012108243151067,2.1895889598590994,0.020547012746410517,3961.997017636168
13929,PbSe,350,0.0004518110864275031,1.2698501593593272,0.0029326127588127533,49.11574137966295
10892,Bi0.5 Sb1.5 Te3 ,350,0.00023519256233782274,0.7931884912146098,0.7063017247091838,28763.90367909596
13813,CuCr0.75In0.25Se2,350,8.336331953023271e-05,1.1163116780010869,0.09990926682476314,42124.51456456496
16824,(GeTe)85(AgSbTe2)15,350,0.00013608812914524222,1.6390848177394666,0.3912420958912488,106143.67849825078
16825,(GeTe)90(AgSbTe2)10,350,6.258263515825331e-05,2.320376278090221,0.09771980451409706,188691.00957009837
17288,Zn4Sb3,350,0.00014501865292183258,1.0449127471988673,0.2449018499888691,40697.718117535784
17287,Zn4Sb3,350,0.0001228905862909482,1.1741725348001668,0.2091748701921332,45996.658112886464
13812,CuCrSe2,350,0.00010558749483916296,0.9365099055921221,0.11394049984826045,27315.646934878376
16823,(GeTe)80(AgSbTe2)20,350,0.0002043683718143307,1.1271116876769611,0.4141063887061329,35256.27430171498
10124,MnSi1.73Al0.005,350,0.00014730124056577568,2.873479411076308,0.10814124637611162,40918.39657156724
13814,CuCr0.5In0.5Se2,350,9.31051752443936e-05,1.1239423553769616,0.10085330415517227,38587.789206718524
16733,Zn4Sb3,350,0.00013937870263565225,1.169142021975231,0.2021389068147485,31694.331074519447
16820,AgSbTe2,350,0.00027212172551111457,0.5678698429871607,0.6441944179153809,14233.291210324409
16732,Ag0.365Sb0.558Te,350,6.430991507230027e-05,1.0306192967037908,0.11404150689204963,87340.08655508651
16821,AgSbTe2,350,0.00027907120537918803,0.4599757014895609,0.9155791409444196,14718.630228269798
16822,(GeTe)75(AgSbTe2)25,350,0.00019718282823001708,1.1942893151512275,0.6217484467484563,55991.10500240678
16730,(Ag0.365Sb0.558Te)0.975(GeTe)0.025,350,6.976333480668225e-05,0.8424079648118287,0.16308985092575734,83680.84592019554
16834,AgPb17SnSbTe20,350,-0.00020665868898500932,1.259836281730657,0.34326602858713506,25009.509493777696
10122,MnSI1.75,350,0.00014209058229103032,2.3161540840042014,0.19361948942975749,63462.60369010786
17282,Zn4Sb3,350,0.00013633070697109532,0.7536234555053137,0.3428879877705965,40490.7633306144
10879,Bi0.5 Sb1.5 Te3,350,0.00021465698326438392,1.170650972450516,0.6070751331593521,44415.001347881
17281,Zn4Sb3,350,0.00010280656503590556,0.9341074708670316,0.2728812202054968,67979.2579183623
16807,AgSbTe2,350,0.00018782675002375083,0.7941035820012596,0.4975676004310236,30453.79803321998
16743,(GeTe)80(Ag0.8Sb1.2Te2.2)20,350,0.00015087525459461307,1.5726254653119194,0.4433582914372201,90312.62499185347
10138,MnSi1.73Al0.0025,350,0.00014482158569260813,2.8931753332376324,0.11534344915855495,45460.378439878084
16742,(GeTe)80(Ag1.4Sb0.6Te1.6)20,350,0.00013030179248635688,1.5608544921172678,0.3353112437602844,85058.00480986279
16744,(GeTe)80(Ag0.6Sb1.4Te2.4)20,350,0.00016152614791707938,1.595903438124223,0.4410978465545535,80283.4022068812
10136,Re0.04Mn0.96Si1.8,350,0.0001217961344154174,2.2256175779730007,0.12360667215324965,52985.54464793962
10137,MnSi1.733,350,0.00014591343572589084,2.1782600541082955,0.14262971319625434,41692.80597033879
10141,MnAl0.0054Si1.7946,350,0.00012682711743230396,2.5184361303451084,0.10028481988537616,44861.50635473358
13829,PbSeB0.03,350,-0.0001857021660997841,1.6661303942007706,0.23817238779209274,39441.30697668747
14478,AgSn4SbTe6,350,9.946164482395082e-05,1.80785342155269,0.3075998841960753,160568.73429530766
13828,PbSeB0.02,350,-0.0001962452553273188,1.7379465918425199,0.4209327765320437,57721.21597090307
14477,AgSn4SbTe6 ,350,9.393820435577297e-05,1.9428194770771985,0.2753619138627251,172624.07404008062
16741,(GeTe)80(Ag1.2Sb0.8Te1.8)20,350,0.00014926266364802574,1.4636887513691978,0.5159173135156456,98719.82009708456
14479,AgSn4SbTe6,350,0.00010480292352894198,1.725009670342711,0.34095413822240583,151344.31780738744
15429,CuFeSe2,350,8.66101047933795e-05,1.1239337335972346,0.04260668207486551,21129.66878300232
14483,Cu1.95Se,350,7.161064822807941e-05,1.0751988232471974,0.15331793535717034,95453.52362271666
14482,Cu1.98Se,350,9.708495072055153e-05,0.8709004736827658,0.2730835246688661,71997.3776613992
14481,Cu2Se,350,0.0001304597356096404,0.5488485913917367,0.6016878363853195,53826.33117870559
14480,AgSn4SbTe6,350,9.880385694327362e-05,1.768097025054037,0.3178631472819308,154898.93339188115
13833,Sb2Te3(GeTe)12,350,5.828475773980454e-05,2.3847234919612466,0.11597320279988023,262872.4617374044
13843,Tl9Bi0.99Te6,350,0.00019486365752986504,0.4634115923874367,0.6200311268201666,22667.99175086316
13842,Tl9BiTe6,350,0.00021667938732726518,0.4506143828902543,0.5770556987751403,16911.753780934367
13851,Ge0.87Sb0.09Te,350,9.704810558149367e-05,2.4127657334106303,0.18152948688650825,136763.02524632018
10129,MnAl0.0027Si1.7973,350,0.00013322698894691542,2.490104846501437,0.10769917184381117,43169.55062793588
13850,Tl8.95Bi1.05Te6,350,-0.00022021397428909049,0.3442931434072625,0.0099024882854757,238.89009225772045
13844,Tl9Bi0.98Te6,350,0.00017511745126922324,0.4929543065589962,0.530905125492164,24183.794121422485
13847,Tl9Bi0.95Te6,350,0.00014916641990822958,0.5654235467306221,0.4694453335339899,34915.135294429056
16754,Ag0.8Pb22.5SbTe18.4S1.6,350,-0.00026502407607909115,1.1857387026375978,0.06800192066381061,3629.0892076314412
13848,Tl9BiTe6,350,0.00021299024235364337,0.4577349927508218,0.5668550175559786,16381.293352522687
13846,Tl9Bi0.96Te6,350,0.00015807443964262598,0.605205552143537,0.4745963185064895,33071.42284475182
13849,Tl8.99Bi1.01Te6,350,0.0002541177577877848,0.3652835772854005,0.4553641803036561,7416.58922010557
13845,Tl9Bi0.97Te6,350,0.00016132567832155255,0.5470999161177631,0.5275544758713298,31680.222237377147
10131,MnSi1.73,350,0.00013759419171994265,2.4483150204985162,0.07944799721741656,29354.994516939667
16749,AgSn3Pb15SbTe20,350,0.00017956207084064696,1.3457773596047171,0.2256659661601779,24490.44919084376
10133,MnSi1.74,350,0.00010745974438481044,2.7050828801406746,0.07752754409146707,51889.19722605276
13883,Ge0.95Mn0.05Te,350,8.092996366140009e-05,3.2739763581785093,0.22677164873230785,348704.22513262177
16751,AgSn15Pb3SbTe20,350,7.582815746293332e-05,2.2033782722004487,0.07964589132034555,89976.23882178137
16750,AgSn9Pb9SbTe20,350,0.00013243295891932286,1.4726924317198768,0.21121454561595002,45740.061165617306
13827,PbSeB0.01,350,-0.0001575365829339543,2.0467393373759197,0.360355706320955,83953.26461251227
14536,Cu0.1Ag2.9SbSeTe2,350,2.3589843020367778e-05,0.516262033066186,0.0010474189284698432,2776.3387793569927
10153,MnAl0.0063Ge0.0108Si1.7829,350,0.00012056554612112972,2.654178193703705,0.1017415564706578,53077.929629136386
14535,Ag3SbSeTe2,350,-2.1171925556750987e-05,0.5345181721108742,0.0004221655211615413,1438.3231636394573
10155,MnSi1.73Cr0.02,350,0.00014152671697408514,2.5376103967714503,0.09084863493646593,32885.045116061934
16798,AgSbTe2,350,0.0002703573940194974,0.5737986351714578,0.6271102924044668,14395.956916736268
10152,Mn0.95Cr0.05Si1.74,350,0.00011907095283741819,2.6603251573441504,0.1084663119021682,58150.02321976773
14458,In0.03Sn0.97Te,350,9.1616112008488e-05,3.6103570877644895,0.2145441649124524,250874.4217769059
14457,In0.015Sn0.985Te ,350,8.98813308971437e-05,4.0979996523686895,0.15682654496131462,250470.52752794657
16794,AgSbTe2.01,350,0.0002582575968089435,0.5280199874482805,0.7954978619188081,17677.443337227538
16795,AgCe0.005Sb0.995Te2.01,350,0.00022583697384796918,0.6056835756852278,0.5010364038848683,16905.371393393772
16796,AgCe0.01Sb0.99Te2.01,350,0.0002576357614457982,0.5595431156104476,0.6193780627999117,14869.652060693072
10789,Ba0.7K0.3Cu2Se2,350,4.9439440899560966e-05,2.447360718163114,0.06133456759350861,182887.5804159775
16797,AgCe0.03Sb0.97Te2.01,350,0.00026387829586871147,0.6002739999527241,0.5485099828364087,13453.23099106609
10810,La22.3Bi35.3Te37.2Fe5.2,350,-3.867226861445165e-05,0.4352124591896386,0.003954301027264429,3363.808023377657
10158,MnSi1.729534Ge0.003466,350,0.00013898800853774258,2.169814036218608,0.09957757097976673,31956.65643468209
10159,MnSl1.719136Ge0.013864,350,0.00013619312259993325,2.139777321929669,0.1103050927085046,36356.80788050225
10160,MnSi1.705272Ge0.027728,350,0.00013919896527408792,2.296346960316858,0.1187552505047317,40211.499557496696
10161,MnSi1.73Cr0.01,350,0.0001438523972969143,2.4197814037272387,0.09704685417128707,32423.160409299497
16808,Ag(Sb0.97In0.03)Te2,350,0.00021050588924685109,0.7485670149665054,0.5158100670576427,24155.36012474315
16809,Ag(Sb0.95In0.05)Te2,350,0.00023625444328317203,0.7055231897931413,0.6066639124450682,21040.999268071697
16810,Ag(Sb0.93In0.07)Te2,350,0.0002548041855625873,0.6817822696260888,0.6791390043433275,19494.82803428083
13816,CuInSe2,350,0.00010689358962446905,0.9148851350943537,0.10474820200505468,26213.472063526675
14462,In0.03Sn0.97Te,350,8.749202810778937e-05,2.764605478664153,0.12584799693515453,150729.39133822572
16740,(GeTe)80(AgSbTe2)20,350,0.00013637189884009788,1.4492735028683623,0.3826836405003786,89437.23401834053
10142,MnSi1.733,350,0.0001404384278791169,2.357654234991188,0.08995328415395057,30722.54397768317
16784,(GeTe)0.8(AgSbTe2)0.2,350,0.00016104440181333523,1.3133378953327044,0.6480931418376616,89834.47934214168
14539,Cu0.2Ag2.8SbSeTe2,350,4.3931234007523276e-05,0.434476467995016,0.0037193552750507063,2392.318915820829
16785,(GeTe)0.85(AgSbTe2)0.15,350,0.00012816829645660068,1.5936293236391117,0.3909647879982991,110923.72860273856
14470,CuGa0.99Zn0.01Te2,350,0.00010742969587503216,6.3196730829513,0.02429559107214972,41036.55136327121
10127,Mn0.97Cr0.03Si1.74,350,0.00011467461821517102,2.583777594851456,0.13196690064091993,74082.81815131727
10689,In4Se2.5,350,-0.0002352306483476149,1.1008804013075013,0.11395464370519498,7118.7909736595175
13826,PbSe,350,-0.00025713581886811527,1.2931718452856966,0.273007543613885,13738.623323610087
17338,Al32Mn34Si34,350,-0.00027446493744265804,8.937766717535695,0.03229219905451736,10946.741133771508
10146,MnSi1.73,350,0.00014630701983699832,2.4782179614138253,0.08874935049464514,29356.637560070165
13824,Cu2.075Zn0.925GeSe4,350,9.318827628077014e-05,1.8331361345783173,0.011874198028571729,7161.572687260462
13823,Cu2.05Zn0.95GeSe4,350,5.732462713014625e-05,2.362635563511001,0.007963945391652074,16359.668111941468
10778,,350,-0.0002028944734339163,4.224419405261034,0.09207811072231964,27039.682611488097
13822,Cu2.025Zn0.975GeSe4,350,0.00015239809313939917,2.3010783245192945,0.011231110725191264,3179.2669844445563
10126,MnSi1.733,350,0.0001473256536647761,2.197178748285936,0.15690190642931068,45380.451508158665
10150,MnSi1.73Cr0.03,350,0.00013626592604281334,2.6637980789655606,0.04874071431289311,19977.935320534853
13825,Cu2.1Zn0.9GeSe4,350,8.23460912951923e-05,2.00784829276867,0.009665400981527955,8177.051791245625
13887,Mo3Sb5.2Te1.8,350,7.903638569603603e-05,4.691492328818779,0.052441359608341724,107438.88299620435
10144,MnSi1.74,350,8.834456052780049e-05,4.150258089438937,0.0497220005512338,75543.31263763094
10123,MnSi1.74,350,0.00011192915563413247,3.0431595841959664,0.08772311781987281,60881.35179098327
14538,Cu0.2Ag2.8SbSeTe2,350,0.00017055761508179236,0.4217074182210102,0.02993986013404865,1240.0829440507075
10145,MnSi1.75,350,0.00013596870072952148,3.833990096664676,0.06188566783892985,36668.667561997594
14537,Cu0.2Ag2.8SbSeTe2,350,3.4949775786817104e-05,0.4810084720705826,0.0042627265032170346,4796.04625146376
13952,Cu2Zn0.3Fe0.7GeSe4,350,0.00016487973966944412,2.144251697676048,0.025393987491489068,5722.740241230194
10255,HfNiSn0.98Sb0.02,350,-9.131858297505192e-05,5.414119334038251,0.07327246119660985,141581.15751094642
14704,CuAgSe,350,-9.673853610505413e-05,1.5621463374963809,0.1922255811708739,94630.29753843334
10256,Hf0.75Zr0.25NiSn0.98Sb0.02 ,350,-0.00010457108625544072,3.4699253256703955,0.1338393407501749,119431.45177931404
17025,(Mg0.55Zn0.45)3Sb2,350,0.00012263232724899108,2.879397521400121,0.0006765049242922673,370.07913813997453
10257,Hf0.6Zr0.4NiSn0.98Sb0.02,350,-0.00010204308988509793,4.392245078438742,0.14060931665742546,185722.6711722466
10258,Hf0.5Zr0.5NiSn0.98Sb0.02,350,-9.559060895746132e-05,3.648668304478956,0.14064453339339875,154195.22248264993
10262,Hf0.5Zr0.5NiSn0.98Sb0.02,350,-0.00010341649432775194,4.519297766611027,0.16474347137128348,206191.61240181304
14702,Ag2Se,350,-0.00014401322481467834,1.131171861004185,0.7380368433950286,116260.24928333449
10261,Hf0.6Zr0.4NiSn0.98Sb0.02,350,-0.0001053646961927868,4.740647207119054,0.17765604985856132,223299.48400186648
10254,Hf0.75Zr0.25NiSn0.94Sb0.06,350,-4.944780821404278e-05,8.332924374683781,0.05358262358651122,536297.2637726763
10244,AgSbTe2,350,0.00027255870251360344,0.3078429940955438,0.8545550417316364,9742.161749904477
10246,Ag0.83Sb1.06Te2,350,0.00018996185719789805,0.4358923274466898,0.6676418587286022,22012.86288406496
10249,Hf0.75Zr0.25NiSn0.98Sb0.02,350,-0.00010434214288381009,3.510160513889268,0.13473301181644093,117125.40910456305
10250,Hf0.75Zr0.25NiSn0.96Sb0.04,350,-8.231462662884953e-05,5.330171083524075,0.12571446251511031,274198.8076073543
10251,Hf0.75Zr0.25NiSn0.94Sb0.06,350,-5.728557951814824e-05,5.887145901485728,0.06531447529278853,338700.01865644107
14250,TlGdTe2,350,8.606232730670674e-05,0.4870770833240219,0.25106477854915205,47341.57806071831
10252,Hf0.75Zr0.25NiSn0.98Sb0.02,350,-9.739054514817529e-05,5.0965854395427055,0.1071785585313782,175626.98423358818
10253,Hf0.75Zr0.25NiSn0.96Sb0.04,350,-8.71802038761829e-05,6.780694401312513,0.1600290325864433,401169.4424246889
14706,CuAgSe,350,-0.00010190702906695408,1.5705706311146277,0.4251306379542705,180441.3268983194
14098,Tl9PrTe6,350,9.185146357315928e-05,0.6065150893918597,0.22755276537256444,47138.134718295165
14099,Tl9NdTe6,350,7.685638884481252e-05,0.7282455002427048,0.16329575107481642,57284.39237194293
14100,Tl9SmTe6,350,6.179165827345336e-05,0.9720447458798159,0.1095184234948699,80629.33528782947
14101,Tl9GdTe6,350,6.766026387424406e-05,0.8898684347642559,0.1375308390265989,75144.96582269407
14102,Tl9TbTe6,350,5.7701195761386426e-05,1.0157838172320721,0.10083936913105404,88838.78282286723
14103,Tl9.1La0.9Te6 ,350,7.49187897825049e-05,0.7023822388675082,0.09795561381876937,39752.87239221391
17036,Zn4Sb3,350,0.0001540392547906713,0.749771883546864,0.4607165232766598,41364.56132986976
14104,Tl9.0.5La0.95Te6,350,9.35062469258827e-05,0.5844659313401361,0.14689510785916815,29283.325227613797
17037,Zn4Sb3,350,0.00015839481118199423,0.8043992002614346,0.4595110864271037,41674.50087457254
14106,Tl8.95La1.05Te6,350,0.00017982410463787094,0.34160766333377324,0.25704582832982803,7726.277120008333
17038,Zn4Sb3,350,0.00015904621719676368,0.8251915201546285,0.4618520367516236,41972.70654782497
14105,Tl9LaTe6,350,0.0001390573633414154,0.3981128761694824,0.2701581080084636,16178.34524725557
14097,Tl9CeTe6,350,0.00010342451456911608,0.5030685615447197,0.2336037427673729,31621.82334409181
14096,Tl9LaTe6 ,350,0.00013894448602450081,0.395002105646723,0.2679991011078283,16206.412945674942
10279,Si0.8Ge0.2,350,0.0001140229087693423,2.61990699307225,0.08188990321408063,53675.70315198566
17029,Zn8Sb7,350,0.0002614834155314143,0.7383900565667019,0.2095043478958477,6318.079699707836
14070,In4Se2.35,350,-0.0003258347563132186,1.0148290167069458,0.034292444663676966,936.54459661221
16994,(Zn0.99Ge0.01)4Sb3,350,0.0001545819689642839,0.8155274333420769,0.4997490731926102,41267.044764027414
16995,(Zn0.985Ge0.015)4Sb3,350,0.00014050373686103112,0.8171475695415168,0.4487329922340321,42763.498218365785
14069,In4Se2.35,350,-0.00034155045610291963,1.4403321396620496,0.008216753782095894,289.8579000051185
10227,FeAl0.10Si2,350,0.00022588993679521777,6.796623835713063,0.030367741424499193,11556.9681102469
16993,(Zn0.995Ge0.005)4Sb3,350,0.00014903838824701916,0.7961993350434481,0.45911111494562296,40470.87147240485
14727,Cu1.99Zn0.01Se,350,7.775528472467516e-05,1.0296567424833285,0.22311742712237514,118199.10412796387
16991,Zn4Sb3,350,0.00013684053491924754,0.7905139566346773,0.372502790940726,37956.003818853416
14737,Cu1.9875Ni0.0125Se,350,7.240575093774801e-05,1.123295614690487,0.1596417254922664,92836.70592802961
14736,Cu1.9925Ni0.0025Se,350,8.836928020620818e-05,1.0570999562643861,0.19542139726137744,78984.32672494715
14735,Cu1.995Ni0.005Se,350,8.639736404014293e-05,1.0031311107434415,0.19317977650904028,78332.62247758832
14734,Cu0.9975Ni0.0025Se,350,9.23746369496782e-05,0.9269508233127276,0.2577854041662975,67129.45795654607
16992,(Zn0.9975Ge0.0025)4Sb3,350,0.00017060588529445666,0.7551723112050176,0.5634864789379321,37807.26439403193
14733,Cu2Se,350,9.618711187181282e-05,0.9736996278650758,0.23755125059177085,65206.26147818928
14732,Cu1.99Sm0.01Se,350,8.902724365096407e-05,1.0234094313524742,0.21392735239136168,85765.71063101607
14731,Cu1.99In0.01Se,350,0.00013014308984572653,1.1391411815325452,0.21558601271784972,41100.606586225236
14730,Cu1.99Mn0.01Se,350,7.801461019398623e-05,1.2358838159202472,0.18086643785139567,106507.34988902645
14729,Cu1.99Fe0.01Se,350,7.267694288583493e-05,1.1614809160088004,0.15890990698972485,118482.57174063825
14728,Cu1.99Ni0.01Se,350,8.345092673140976e-05,1.0210959101646897,0.2129878691924544,94999.39565935498
14689,GaPd2,350,-6.519757022333351e-07,44.45081039708767,1.4390377902656257e-05,4299530.322996846
14271,Sb2Te3,350,0.00017340344029487674,1.394481902812085,0.5319737687260427,67985.46674788017
17004,Zn4Sb3,350,0.00013768460415168268,0.923211215137646,0.18232419784763493,27263.343820414848
10230,(FeSi2)0.875(TiB2)0.125,350,-0.00012005130159701111,6.0107237080909774,0.019518337597901204,23257.7554917471
17005,(Zn0.999Gd0.001)4Sb3,350,0.00014083402058350381,0.9147064864385156,0.2491526484381024,32693.695311076066
17006,(Zn0.998Gd0.002)4Sb3,350,0.00013518125386438942,0.7707317456164071,0.4141909628174859,51639.97953069282
17007,(Zn0.997Gd0.003)4Sb3,350,0.0001387353474855171,0.8375411708852876,0.2986817743487276,38881.56706832315
17008,Zn4Sb3,350,0.0001354229542241431,1.15032863541984,0.21212466266801844,36480.222805456695
17009,(Zn0.005Nb0.995)4Sb3,350,0.0001358499738702362,0.7211617377797044,0.3528302885184577,42886.84922977143
17010,(Zn0.01Nb0.99)4Sb3,350,0.00023531058743188565,0.6656398923310323,0.30008642925428763,10190.882887197004