sampleid,composition,Temperature,Seebeck coefficient,Thermal conductivity,ZT,Electrical conductivity
5026,Sn0.3Co3FeSb12,350,9.664169524057873e-05,1.3454525545521014,0.09623740930007862,40267.51086405723
8186,FeSi2.1,350,0.00026771925495229314,8.628264315710117,0.0008988184368242399,309.1492185949673
9460,PbBi2S4,350,-0.00014912240412026935,0.6109888094462267,0.1258852971443312,9280.502360456385
5033,In0.25Co3.8Ni0.2Sb12,350,-0.00017902480620758614,2.34892962507487,0.2716670354871488,50763.616503563564
5032,In0.25Co3.9Ni0.1Sb12,350,-0.00021009807233758325,2.858379451682417,0.3197535906150639,52849.49730103781
5031,In0.25Co3.95Ni0.05Sb12,350,-0.00019450385932979008,2.8454140908022936,0.4672676122437499,90891.27937714428
297,Pb1.005Se1,350,-0.00010105896175529543,2.9805244653274263,0.21980936021390166,183282.56944235807
523,MnSi1.74,350,0.00013368518037710464,2.4062731296512574,0.06444590344448066,24791.6630470542
10109,MnSi1.69834Ge0.03466,350,0.00014001953368132826,2.3637795325236333,0.11662634383517627,40175.22619226021
6415,Yb11Sb9.3Ge0.5,350,2.141400461968701e-05,0.9500819330069846,0.008670049129117284,54876.097507322156
5923,Yb0.2Co4Sb12,350,-0.00019841380687266678,2.586533403867524,0.12415770079942373,22854.949862098998
5841,Bi0.4Sb1.6Te3,350,0.00022765797755454868,1.064953000043805,1.1289188740652258,69425.33764692978
10091,Mn0.75r0.15Ru0.1Si1.74,350,0.00011391386375552806,2.3990588015345793,0.0734310230942644,38788.16749931753
10108,MnSi1.73Cr0.005,350,0.00014289993043425082,2.2927534296329366,0.10215786462826308,32771.557271315265
6416,Yb11Sb10,350,2.171045217615666e-05,1.3235275544795142,0.01004692520181742,80604.70154254015
237,Pb1.002Se1Cl0.004,350,-0.0001250283302329237,2.36973453081744,0.3917670365066945,169684.69872709597
5851,MgAg0.97Sb0.99,350,0.00026611522428837697,0.7429430221803419,0.8764919283337156,25859.097695605742
249,Pb1.003Se0.88S0.12Cl0.006,350,-9.297807208674467e-05,2.5024575412294188,0.3073962600510137,234274.795476757
302,Pb0.997Ga0.003Se1,350,-0.00011623121911971115,2.5814437950269618,0.3141600982581736,171514.1942501217
5853,MgAg0.963Cu0.007Sb0.99,350,0.00024502643518310686,0.7042539798197063,1.0422171125840316,34875.32423111557
6394,Ca2.5Sr2.5In2Sb6,350,0.0005194763399598846,0.7988646623508557,0.012887764125248164,109.00620025240565
5852,MgAg0.967Cu0.003Sb0.99,350,0.000259509172196092,0.721922047335597,0.9746876851748636,29516.938457294425
6607,LaOBiSSe,350,-9.220412378610276e-05,1.5445622393166076,0.10700868111430886,53202.072298741536
387,Pb0.98Na0.005Te0.88S0.12,350,0.00012780565327917914,1.6320829833426511,0.2831721505125337,80839.6830735876
166,Pb1Se0.88S0.12Bi0.003,350,-7.289393383178025e-05,2.7604849967324103,0.11167044371214713,165757.35652889757
10110,MnAl0.0063Ge0.045Si1.7487,350,0.00011717465679280425,2.413631286374553,0.1053673321341298,52922.63824579588
546,Ba24Ga15Ge85,350,-5.9639712179350245e-05,0.7985870852913206,0.1216150939536962,81064.76909658265
303,Pb0.98Na0.015Te0.88S0.12,350,8.407777064022167e-05,2.556359692020388,0.13825300502805202,142845.35450881592
10101,MnAl0.0063Ge0.063Si1.7307,350,0.00010849800604490179,2.444903995804192,0.092569037564284,54930.80968813921
6396,Sr5In2Sb6,350,0.00036064116400974587,0.9576179130397364,0.0007657883344260929,16.109511493635562
5901,Co3FeSb12,350,6.797710724232884e-05,3.0118398703536364,0.04734787205423198,92922.5271789972
9274,Sn0.99Na0.01Se,350,0.00023748832726164023,1.6924432486186527,0.3405157387857369,31913.652635809598
6408,Yb14Mn1.15Sb11,350,0.00016450751235741882,0.8930262495819531,0.028885687266530968,3142.727293827281
5875,Ca4.75Na0.25Al2Sb6,350,0.0001544900991041483,1.2412921612887082,0.14279642215417632,18588.1108954154
236,Pb0.98Na0.02Te0.92S0.08,350,8.477948387753267e-05,2.5884498514077383,0.15967400684070068,164295.01937136837
10103,MnSi1.72,350,0.0001337056536854467,1.6434892572751456,0.1286698834462787,33796.847311029254
10106,MnSi1.78,350,0.00011958681723097571,2.1460439629785433,0.179203596125576,76833.5103948466
6407,Yb14Mn1.05Sb11,350,0.00010257134441979572,0.8874230310313562,0.07069349822034635,18066.50455240794
526,MnSi1.75Al0.005,350,0.00014384849532176366,2.852083342758992,0.07669281973908902,30202.175478646666
9177,PbBi4Te7,350,-6.258300164815711e-05,1.632772995662154,0.09515248433856244,113335.27896865096
6409,Yb14MnSb11.022,350,5.237914171734606e-05,0.8480925824540121,0.02567672338243832,22671.095491079937
538,Ba24Ga4Ag0Ge96,350,-2.689353852016644e-05,2.7334402021211153,0.01626142265744776,195655.5144860453
266,Pb1.003Se1Cl0.006,350,-7.081438020542745e-05,2.9776416544334,0.14044940581796414,238276.5900306071
524,MnSi1.72Al0.005,350,0.00014304407676461034,2.6352149775272338,0.08837170920821315,32517.825978210716
6404,EuCd1.6Mn0.4Sb2,350,0.00033661985904479734,1.0698519477601391,0.057035774713731065,1565.766395770152
521,MnSi1.72,350,0.00012690479634096,2.1220619682430897,0.06393091127846745,24068.26805097624
525,MnSi1.74Al0.005,350,0.0001477680353720029,2.6460933896070635,0.09431804250681504,32656.595261737904
343,Pb0.98Na0.02Te0.88S0.12,350,9.9004368864267e-05,2.4199759793058515,0.1956153981530364,137986.73214434716
10105,MnAl0.0063Ge0.027Si1.7667,350,0.00012538276135245577,2.4722981430775186,0.1165995138271501,52390.660946616335
240,Pb0.98Na0.02Te0.84S0.16,350,8.190671742799124e-05,2.5001174725869983,0.1205300426457707,128336.04136698881
522,MnSi1.73,350,0.00012639262637338753,2.4817555565120006,0.06884481036913948,30557.56117502485
6403,EuCd1.8Mn0.2Sb2,350,0.00030248918463735307,1.1746296220288572,0.06243470880826929,2475.588656300028
370,Pb1Se1Cl0.001,350,-0.00015082456271129502,2.115032065993291,0.3615944621923442,96056.45012018444
10104,MnSi1.78,350,0.0001283342153733985,2.3611483517160377,0.40564254984507264,166155.15314155814
6402,EuCd1.9Mn0.1Sb2,350,0.0002856975393462203,1.1764792647795772,0.07025197629281357,3021.4908586850565
288,Pb1.004Se1Cl0.008,350,-6.153402448629756e-05,3.5783276838988294,0.09666714408165253,261011.902416253
544,Ba24Ga9Ge91,350,-3.899272746770486e-05,2.0668628973043246,0.03932407434793839,161878.72054248862
327,Pb0.98Na0.01Te0.88S0.12,350,8.915273964672798e-05,2.381220057539329,0.14860935065694358,127206.18770059977
545,Ba24Ga12Ge88,350,-5.260094394385454e-05,1.287674585367026,0.09821654583744732,135229.72976821352
10086,MnSi1.73Al0.001,350,0.00014433397868251585,2.6382105770002404,0.10758313527414126,38926.776589208384
160,Pb0.993Ga0.007Se1,350,-4.310497899813554e-05,3.169611535816953,0.056981535734818914,277726.4665291377
10107,MnSi1.73,350,0.00013070768987569228,2.9749829991765093,0.08513704887327303,42357.73782285804
270,Pb0.98Na0.02Te1,350,7.997853439304639e-05,3.4945502451483113,0.12765387045036738,199255.51429171464
539,Ba24Ga4Ag1Ge95,350,-2.9773978167470526e-05,2.424303515035884,0.021885347826706314,177403.72670558924
5782,Yb3Co4Ge13,350,-1.5224842157206644e-05,13.49413488431082,0.0024802298471682718,438517.2417121616
6401,EuCd2Sb2,350,0.0002362762687489,1.5465230932110707,0.1299152709958208,10700.77591698624
541,Ba24Ga8Ag2Ge90,350,-3.3250831473572856e-05,2.1806859951093798,0.02971478389287502,151403.35071349735
5785,Yb3Co4Sn13,350,2.270412351995485e-05,14.733074254038966,0.014044037127961885,1081441.318629848
10087,MnSi1.73,350,0.00014268371197554718,2.567383811954348,0.09148198074449143,32961.693380329416
253,Pb1.02Se1,350,-4.7735931438581595e-05,4.594912737882731,0.06759290715803885,389421.161130161
540,Ba24Ga4Ag2Ge94,350,-3.179764732153792e-05,2.3523346479312326,0.02540560828831476,169221.74696719725
5878,Yb14Mn1.05Sb11,350,0.00010121117413444744,0.8918663244207204,0.07172945515116502,17748.722331822326
5854,MgAg0.96Cu0.01Sb0.99,350,0.0002600628513261812,0.6941508736154375,0.9686000732090838,28235.59999880785
5928,Bi0.4Sb1.6Te3,350,0.00022120259627397945,0.8522322869737076,0.7526157863326982,37452.67333480698
322,Pb0.985Ga0.015Se1,350,-4.4953826150875305e-05,4.117242381497699,0.03378944064905838,196691.71604009328
10115,MnSi1.73,350,0.00012952483366739234,2.5768803701514247,0.12112996370114792,51196.50465335431
5856,MgAg0.97Sb0.99,350,0.0002551925062244044,0.740974211386588,0.8274870739069671,25931.84364218889
10114,MnSi1.7321335Ge0.0008665,350,0.00013815128979450202,2.2930518447448947,0.08869784196678245,30447.314652756813
10084,MnSi1.73,350,0.00014637942548112714,2.4687072450747607,0.08867824691799597,29191.645047791786
10100,MnAl0.0063Ge0.018Si1.7757,350,0.00012572743405684554,2.5317237415433413,0.1133286579602894,51859.450577894786
10096,MnSi1.8,350,0.0001301946520622412,2.5785769744365483,0.09020990111118034,39208.476910456986
274,Pb0.98Na0.02Te0.96S0.04,350,7.955574714055108e-05,3.003943415264444,0.13721494201594178,186072.4141437529
1311,BiTe,350,-0.00011525925180780024,1.0831622950030582,0.5041699092461479,118443.6133845198
10097,MnSi1.733,350,0.00014795559249875282,2.1566938854394224,0.14574903362213246,41026.396750548265
6526,Ti1.008S2,350,-9.78048497282852e-05,2.3584074580033785,0.1037557541860076,76396.69766677835
10098,Mn0.65r0.2Ru0.15Si1.74,350,0.00011076398745711096,2.3174965509894268,0.07700592448904851,41560.23816888127
435,Pb0.995Ga0.005Se1,350,-6.823537480590044e-05,3.0334736894324434,0.1203122602979686,223956.10785309828
6528,Ti1.008S2,350,-8.86950912415815e-05,2.966057571873161,0.1254564337962818,142402.39192763215
10117,MnSi1.73,350,0.00013531767964341314,2.5935272842845363,0.10658392048856752,46323.33404977883
5860,Mg2.975Na0.025Sb2,350,8.126095828588965e-05,1.9035728295238088,0.05574952276405853,37857.00803433502
6531,Ti1.031S2,350,-3.9850146472868976e-05,2.3874353715266987,0.031768402230414036,156895.20613748566
178,Pb1.001Se1Cl0.002,350,-0.00013708460781744537,2.2760396362649504,0.2851070407568676,98660.2771355221
10116,MnSi1.733,350,0.00014690802163853998,2.389758239201232,0.12313450496106065,38956.028189252684
5859,Mg2.9875Na0.0125Sb2,350,9.861813421336342e-05,1.625006827959767,0.06320845521343099,25041.347921768785
10094,MnSi1.75,350,0.00013108133026622383,2.2095712284072087,0.1370935507122621,50370.389173641524
9276,Sn0.97Na0.03Se,350,0.0001840412702524664,1.5306543258777818,0.4979164154770125,72302.43288936414
9275,Sn0.98Na0.02Se,350,0.00019791437971256772,1.7448369218597497,0.31795108317604115,48402.048743024905
6392,Ca5In2Sb6,350,0.00031623964843115296,0.992430153755417,0.028831062030364462,817.4475761032631
10093,MnSi1.73,350,0.0001290616688820709,2.6495991460771773,0.1150761723425018,49750.02768886834
506,Fe0.95Co0.05Si2-10wt%SmO2,350,-0.00017472643855484957,3.7809191082669487,0.05844145446895058,20679.170209022606
505,Fe0.95Co0.05Si2-1wt%SmO2,350,-0.0001834495651426996,3.442037869785862,0.09468054181396217,27667.821243926366
507,Fe0.95Co0.05Si2-1wt%Er2O3,350,-0.00016893460481335088,2.4087647705856376,0.09900151324463538,23874.31605486523
10095,MnSi1.733,350,0.00014809212594231843,2.2749222415279,0.14907927690746384,44182.659566260925
6393,Ca3.75Sr1.25In2Sb6,350,0.00039430443487563653,0.8136374828574306,0.01048955986388107,156.84000429369445
5855,MgAg0.97Sb0.99,350,0.0002696605456062012,0.7617422621880703,0.8594055473826907,24729.217721830988
10113,MnSi1.75,350,0.0001632447537318814,2.804234797575463,0.15771550151488806,47417.89219587195
4836,Yb0.6Co4Sb12,400,-0.0001032640718531034,3.2271667508332036,0.3834221142324211,287577.70433199237
4837,Yb0.6Co4Sb12,400,-0.00010084185140603657,3.4251312131654954,0.3488715362917667,287988.44662654266
4835,Yb0.6Co4Sb12,400,-0.0001054625084315138,3.314955520090422,0.3689471507935637,268390.6294785223
4833,Ba0.14Eu0.13Ci4Sb12.05,400,-0.00012287297327360117,4.0706016976552455,0.4466660695986227,297120.2551495914
5862,Ca0.75Yb0.25Zn2Sb2,400,0.00012705389044928916,1.4841935604291658,0.1606967256462151,37658.87434483462
4834,Ba0.19Eu0.23Co4Sb12.03,400,-9.603589377551977e-05,4.359646746541854,0.3569269045029756,415320.33980316366
8214,Bi1.8Sr2Co2Ox,400,0.00011994788534123542,0.6692789708475982,0.009269995421249008,1133.2606325334207
5865,YbZn2Sb2,400,5.798337391315091e-05,3.8699617771829917,0.08287821333285872,266444.26180283114
13820,Cu2.15Zn0.85GeSe3.9,400,5.5323019603326685e-05,0.4493959442156071,0.07955605958556332,29977.634662589717
9429,,400,-8.980975945227291e-05,0.6124311933752002,0.2948744458861964,51652.29625971005
13819,Cu2ZnGeSe4,400,0.0001294858516465004,0.9754807360722226,0.008560055742286299,1412.8477970400634
13266,Ca0.84Ce0.16Ag0.9Sb,400,8.542673815770803e-05,0.6209670770722068,0.2426970075868839,49507.16886186318
12034,Hf0.25Zr0.25Ti0.5NiSn0.998Sb0.002 ,400,-0.0002001680733780402,2.300244521619516,0.3890738460237039,55776.977258391424
4838,Yb0.6Co4Sb12,400,-0.00010702010243834734,3.183982747553748,0.32844592804263595,217965.9898410255
4832,Ba0.24Yb0.12Co4SB11.85,400,-0.00012458778815666578,3.599592848727692,0.4688771097730201,265039.54226698185
13275,Zn4Sb3,400,0.00014933146319956155,0.8309766988389159,0.4837303597905148,37111.38578007541
13827,PbSeB0.01,400,-0.00017075569589970258,1.9298539263435508,0.398477717578654,75198.74221522658
13746,CuInTe2,400,0.0003040236217446898,4.095244263032452,0.06745733781680917,7577.630134800691
9449,Pb3Bi2S6,400,-8.265852429985472e-05,0.8566856519024135,0.059417188153343466,17024.759822655767
9426,(Mg2Si0.9375Sb0.0625)0.4(Mg2Sn)0.6,400,-0.00021137664142716875,2.0025016203592823,0.3871243076974324,50573.18800067903
13747,Cu1.96Se,400,7.874049716173353e-05,1.6349715585463604,0.1600098286629862,98524.64910793024
13826,PbSe,400,-0.00026204279491731083,1.2355788567154709,0.3034633099785201,12875.674806314637
4725,YbCo4Sb12,400,-7.468260121928077e-05,4.977820655887604,0.1668676058734614,352081.963550935
5092,CoSb3,400,-0.0004114658911323581,8.168019571529603,0.03613462433034025,4358.255057521657
5093,CoSb3,400,-0.00014645776870876793,0.6199344261522811,0.001100052415055484,79.4830117662155
13828,PbSeB0.02,400,-0.0002075634333543408,1.6418619965250358,0.4606027190508592,51897.779949978125
13227,CoSb2,400,-1.21687720483669e-05,8.956280852140441,0.0016186914789304866,244758.78094390422
13748,Cu2Se,400,7.923197385286501e-05,1.6815429942020006,0.16789072842707298,102188.50574790404
4829,Ba0.23Co4Sb12.22,400,-0.00013308627205811538,4.29915222360685,0.3996978498963176,237758.46558473923
5875,Ca4.75Na0.25Al2Sb6,400,0.00015865762585988059,1.1935365566971572,0.1829208217206767,17626.491822977532
13751,Sn0.067Sb0.667Te0.266,400,4.361067535420283e-05,8.415622274991705,0.015077994849728934,173435.69716870727
4830,Yb0.14Co4Sb12.05,400,-0.00017605443457187795,3.263327678436837,0.5413053871913218,137378.83277309526
5866,Yb14MnSb11,400,6.931509235430648e-05,0.8971691624018554,0.09530120646733027,44489.45979190696
6123,PbTe,400,0.00010949495799257992,2.9944916428100097,0.3606144228196747,197688.5417986745
4831,Ba0.15Yb0.09Co4Sb11.86,400,-0.00013886274112579714,3.3733172242689515,0.4601082512065727,201606.69368250985
5861,CaZn2Sb2,400,0.0001457142069577717,2.2430782143112644,0.12890295311215064,32547.176554015023
13750,Ge0.067Sb0.667Te0.266,400,-1.615875866423083e-05,9.634611594791474,0.0033493164879851572,253404.99064580552
8188,FeSi2.5,400,0.00028637130604027906,12.334624396233902,0.0028994521718516057,1090.2419452160557
9423,(Mg2Si0.9875Sb0.0125)0.4(Mg2Sn)0.6,400,-0.00034325751748064793,1.0297489416788137,0.4060350928065249,8902.864192466463
13749,CuInTe2,400,0.00028219091372610463,4.165344226299392,0.08748173654046287,13385.403994192051
5094,CoSb3,400,-0.0001986165474177129,0.5111614104203409,1.866344237225556e-05,0.6045872192837723
14783,Mo2.6Fe0.4Sb6Te ,400,5.841425772089575e-05,4.8222344792002465,0.06343266929038271,228460.63579950997
14779,Mo2.6Fe0.4Sb7,400,3.885381181476085e-05,5.025327684169224,0.05234430971571777,430460.4804165103
13272,Zn4Sb3 ,400,0.00010112921322121861,0.774157357362875,0.3849202781719666,59405.176854445075
9459,PbBi2S4,400,-0.00018411153409924184,0.6036188813786926,0.15501801433099638,6591.7243665652795
13262,Cu2.2Zn0.8Ga0.06Sn0.94Se4,400,6.514206329890508e-05,2.7745326963665007,0.050854398062212515,75084.2998973098
14731,Cu1.99In0.01Se,400,0.00014313191498707627,1.1307365916753418,0.25357829248503816,32524.065986833608
5027,Sn0.4Co3FeSb12,400,0.00010222115415509198,1.4201935738522145,0.1255495240505021,40178.41577835331
5923,Yb0.2Co4Sb12,400,-0.00020257696775101666,2.5761545061068265,0.1822275593094343,25324.55746469518
14730,Cu1.99Mn0.01Se,400,8.69682702148335e-05,1.1726663427104764,0.2854666649005189,91979.7680559653
14729,Cu1.99Fe0.01Se,400,8.14896439487771e-05,1.1376582464187448,0.2448651057165928,105753.69313915912
14728,Cu1.99Ni0.01Se,400,9.508381425335517e-05,0.976427588064782,0.3371968286614088,78212.42855378627
14727,Cu1.99Zn0.01Se,400,8.54030423596057e-05,1.0094064489844063,0.3224559316220077,98377.3088997189
10896,Fe2VTa0.08Al0.92,400,-0.0001069867094137318,10.366441869513196,0.17418216597628322,377237.35746727686
10879,Bi0.5 Sb1.5 Te3,400,0.000194164777034423,1.3020777296644792,0.5019024499173973,40917.31703016319
5033,In0.25Co3.8Ni0.2Sb12,400,-0.00018396524371550063,2.4008297666843896,0.3091667016272188,49906.66884606865
13259,Cu2ZnGa0.07Sn0.93Se4,400,0.00012893432304889138,2.281138500533764,0.05080627414578665,15558.41807695961
13795,Yb0.079La0.348Te0.574,400,-0.00015033806944282567,0.7871213782659436,0.17118805735927303,16916.46267533045
13260,Cu2ZnGa0.1Sn0.9Se4,400,0.00011797040594285816,2.364362343752888,0.05670909191208723,20887.11269866424
9439,Pb5Bi6Se14,400,-0.00012579844524071953,0.5278493812764737,0.15119101094677373,12301.847986225559
9460,PbBi2S4,400,-0.00016560385457095494,0.6016740178083559,0.15758311738227168,8460.265445247565
13261,Cu2.1Zn0.9Ga0.04Sn0.96Se4,400,6.688147665505055e-05,2.8092038461774065,0.05323049904700145,71834.39413638914
13792,Yb0.02La0.399Te0.584,400,-7.929912601056718e-05,1.3843204609322273,0.11975236628189152,65905.84745991461
5031,In0.25Co3.95Ni0.05Sb12,400,-0.00019884707591566968,2.8813662105527538,0.5144609712389202,87985.27097507543
10895,Fe2VTa0.05Al0.95,400,-0.0001194818631962844,11.767008444471864,0.1885666039507614,352781.62228997867
10892,Bi0.5 Sb1.5 Te3 ,400,0.000204563700762323,0.8807425631988987,0.5731920430887965,28268.65731245745
8185,FeSi2.0,400,0.00028279236388306536,7.628491987302105,0.006060579167367876,1445.2982448550908
5032,In0.25Co3.9Ni0.1Sb12,400,-0.00021279870895119586,2.869264257486706,0.3664655739502245,52464.52790498332
8186,FeSi2.1,400,0.0002616987913377938,8.257754330341049,0.003797488836826837,1144.7088468137665
13257,Cu2ZnGa0.03Sn0.97Se4,400,0.000170403504463312,2.2362985776132334,0.05445453767016975,9303.1704340646
13258,Cu2ZnGa0.05Sn0.95Se4,400,0.00014203251022138554,1.8395669218346369,0.06051900992292419,13614.448107803835
14704,CuAgSe,400,-9.763845380528812e-05,1.4772361645939356,0.18641021719825152,74239.91120791374
14782,Mo2.6Fe0.4Sb6.25Te0.75,400,5.165591138658598e-05,4.2449414348986965,0.06839187643179015,266244.0492741788
14732,Cu1.99Sm0.01Se,400,9.979571235732046e-05,0.9930532629454516,0.2981526882353131,69699.09300683727
14775,Mo2.8Fe0.2Sb7,400,3.07351094986299e-05,5.754793843821139,0.033034113873321086,495072.14820506045
5023,Co3FeSb12,400,7.616073064746122e-05,2.961389594911528,0.048404236662232016,56321.851430719275
13814,CuCr0.5In0.5Se2,400,0.00010394620329345592,1.0879543573549095,0.1404782263643283,32613.29782326713
14774,Mo2.9Fe0.1Sb7,400,2.8099015958839112e-05,6.33805970117289,0.0262228793147401,504533.79593505495
5928,Bi0.4Sb1.6Te3,400,0.00020894201358301359,0.9390793142105852,0.6042837213873459,32496.128729848424
13244,In4Pb0.01Sn0.03Se2.8,400,-0.00023030146851049776,0.8904214580678674,0.3849213650726866,13247.543235733589
14773,Mo3Sb7,400,2.371753153400115e-05,6.0521783360846735,0.021537159634942262,540614.6063263332
14772,Bi2Te3,400,-0.0001289192222127295,1.1349133266905245,0.6209594130241757,99588.98740920759
14771,Bi2Te3,400,-0.00013167719749818024,1.1297330162602914,0.5631948365521237,99528.81440117977
5024,Sn0.1Co3FeSb12,400,7.78203049160518e-05,2.1195811546638423,0.060537357161859574,48354.207354835315
13245,In4Pb0.01Sn0.03Se2.7,400,-0.00022532623350419916,0.8635235377734958,0.3566835001899475,12804.105784022957