sampleid,composition,Temperature,Seebeck coefficient,Thermal conductivity,ZT,Electrical conductivity
13275,Zn4Sb3,450,0.00015830706113764632,0.7792519796326707,0.6040032207806041,35158.45464264331
6336,Yb0.5Ca0.5Cd2Sb2,450,0.00019334593023249668,1.0470130738178525,0.4163781641076609,23625.577984719086
12885,EuZn1.8Cd0.2Sb2,450,0.00015742065880006427,1.8123252130809264,0.5502966600249282,83302.89234433304
12884,EuZn2Sb2,450,0.0001467434239363327,1.9347030908638057,0.4849606490288062,83504.16937603707
6019,Eu11Cd1.6Zn4.4Sb12,450,9.64865201058954e-05,0.8660698155047559,0.15132777520172808,25633.323374189484
13336,MgAg0.97Sb0.99,450,0.00024243692757320787,0.8072137512052694,1.1295853107061125,33868.27626062219
13388,Cu2.1Mg0.9SnSe4,450,0.00010709224505475982,1.7572959470027811,0.13782351686182565,38182.04922262323
6329,YbZn1.85Mn0.15Sb2,450,0.00012469873398414038,2.063670684172896,0.24733013319893735,64837.68639808964
12886,EuZn1.4Cd0.6Sb2,450,0.00018575572269467576,1.4528138002916997,0.4918733864092713,43793.1613213133
6328,YbZn1.9Mn0.1Sb2,450,9.800813229068634e-05,2.1252211203211453,0.19653541721867024,84054.5541295279
13385,Cu2MgSnSe4,450,0.00029982607795443533,1.6745411035751268,0.06752815983569127,2397.773086215607
13337,MgAg0.97Sb0.9925,450,0.00023090054542412945,0.8485890902751128,1.1406212728418597,39912.049788292
6327,YbZn1.95Mn0.05Sb2,450,0.00011517766029220713,2.0986949988612764,0.2212141725145476,68257.08101970938
13338,MgAg0.97Sb0.995,450,0.0002138064556486634,0.9203781027959874,1.1574720676894656,50694.37286669941
6020,Eu11Zn6Sb12,450,0.00014982522559254925,0.8657047763604522,0.13421204461533398,9343.975338226252
6326,YbZn2Sb2,450,7.878563401975159e-05,2.6872398188715283,0.14987384192115227,123949.1629892781
12844,Yb14MnSn11,450,7.512049966185884e-05,0.8434059424693016,0.1205418563751704,38907.7001387247
12861,Cd0.999Ag0.001Sb,450,0.0002454109930616126,0.8915226503686279,0.8449845433633594,27141.0752288643
6012,BaGa2Sb2,450,0.00037135958547262734,1.0314577836370151,0.061421999326773676,969.4841495195816
13352,Zr3Ni2.7Co0.3Sb4,450,0.00010415381461167356,2.8388147964036663,0.16868681117626744,94312.918554625
12860,CdSb,450,0.00034709223300655916,0.9393895240073834,0.2614546151933501,4520.022068199693
6013,BaGa1.975Zn0.025Sb2,450,0.0002037447396543745,1.0631110439381697,0.28266374095316643,14566.07618366298
12880,YbZn2Sb2,450,6.327522853292204e-05,3.3342005115347737,0.11595880859740862,236550.78085696461
6014,BaGa1.95Zn0.05Sb2,450,0.0002227170890514397,1.1216021116288422,0.2898034182088613,13487.057410000363
13354,Zr3Ni2.5Cu0.5Sb4,450,-0.00010614543922919764,3.6630803745850717,0.19084228794673289,120062.89293007414
13355,Zr3Ni2.7Cu0.3Sb4,450,-0.0001454095152172675,3.7890682398261393,0.229606736892732,84231.13909905015
6015,BaGa1.9Zn0.1Sb2,450,0.0002239189231956293,1.0834432626384864,0.2777948941629365,12629.916219967627
6016,Eu11Cd6Sb12,450,0.00013787710565233118,0.7089996227209928,0.14534943771158834,11273.775927952085
12862,Cd0.997Ag0.003Sb,450,0.0002413404206718191,0.9366538772766356,0.8983615304314141,31500.940591663886
13351,Zr3Ni2.8Co0.2Sb4,450,0.00013360765050601765,2.4731773077937325,0.2451419403988478,75445.21455376224
13348,Zr3Ni3Sb4,450,0.0003132450046756342,3.5198034565400427,0.0419694244133564,2725.9701413069697
13349,Zr3Ni2.95Co0.05Sb4,450,0.00019220464556426816,3.067699857026684,0.2054251583967629,34804.23328711122
12864,Cd0.99Ag0.01Sb,450,0.000212524893532268,0.8985118907671894,0.8711440789859923,37441.370045384894
12863,Cd0.995Ag0.005Sb,450,0.00023927409185240528,0.9165715185635674,0.9798256295312098,33975.47032525546
6018,Eu11Cd4.5Zn1.5Sb12,450,0.00016112973640454643,0.7800156433258482,0.2548803704512003,17799.903401289863
12887,EuCd2Sb2,450,0.0002715583388927518,1.024963058840333,0.32750398139344195,8934.931664710472
13325,MgAgSb,450,0.00011696561089173428,1.39517150604011,0.5509147751855918,107158.15395011868
6332,YbZn1.6Mn0.4Sb2,450,0.00010585643504611344,1.979936048938987,0.11465567559271768,44857.45918003914
6335,Yb0.4Ca0.6Cd2Sb2,450,0.00021330441571499763,1.0986093569090465,0.3890712418015252,19054.710290783976
5997,Eu11Cd6Sb10As2,450,9.025742023625098e-05,0.7140686683024352,0.052152201244167536,9336.37190862693
6333,Ca1Cd2Sb2,450,0.0002391845673201104,0.8208740576583986,0.010174750769149574,261.101733660378
12890,Ca5In2Sb6,450,0.00048333174389880636,0.8408903469540083,0.11220319529691794,980.5475468682382
6006,Yb14MgSb11,450,9.560129869261088e-05,0.8076101375728325,0.1207322792381902,26454.856033927957
6322,Ca16Bi11,450,8.966420908278599e-06,1.4310036779377602,0.0005865343797096407,23199.75858157151
6330,YbZn1.8Mn0.2Sb2,450,9.584922404647264e-05,1.8725747127524053,0.09599715328379517,38421.23223099492
6331,YbZn1.7Mn0.3Sb2,450,0.00012073623587685524,1.9972409977073493,0.13361395906209794,36685.650017726315
6001,Yb0.98Zn2Sb2,450,7.260234858160697e-05,3.214076227204738,0.19464786977493592,220769.96851819693
6002,Yb0.99Zn2Sb2,450,0.00010692864035251317,2.3547675619031603,0.3280242922114643,125693.21094890994
12893,Ca5In0.9Zn0.1Sb6,450,0.00014301141026789742,1.0833960444597488,0.19364198174688185,20737.814427173707
6003,YbZn2Sb2,450,0.00021369030359685964,1.7787195942455494,0.4600034625230182,37178.67585637343
6004,Yb1.025Zn2Sb2,450,0.00020922845808283173,1.654282496276857,0.4368609412179924,31140.905252374458
12892,Ca5In0.95Zn0.05Sb6,450,0.00018067018174393627,1.099205140300712,0.21754291363873896,14362.831856184885
6005,Yb1.05Zn2Sb2,450,0.0001985145365034663,1.3564042278130868,0.4251956698076558,26980.598555853067
12891,Ca5In0.98Zn0.02Sb6,450,0.00026288034967047444,0.9133916956377875,0.2014047083310052,5242.4661020536405
13551,In4Se2.32I0.03,450,-0.0003005733040333942,0.8460538829277263,0.5897089175172449,13023.089586601289
13550,In4Se2.32Br0.03,450,-0.0002291376226887164,0.9411415056234624,0.598522450738448,26190.116707537272
6269,YbCd1.8Mn0.2Sb2,450,0.0002019561237824785,0.7642328957290763,0.4668186112391625,17554.769675946816
13549,In4Se2.32Cl0.03,450,-0.0001637608283159737,1.0760556050778205,0.3636745935663087,35549.4197840363
6270,YbCd1.2Mn0.8Sb2,450,0.00015231332520239968,0.78147640358019,0.06498478615285425,4509.285461096448
12659,NbCo(1+x)Sb here x is 0 ,450,-6.963052685949502e-05,6.132999828137264,0.10087337193974244,267925.17900781345
12660,NbCo(1+x)Sb here x is 0.2,450,-7.901837308078315e-05,5.567699597144755,0.11954026185895,224464.31081527204
13557,Cu1.5Bi4.80Se8,450,-0.00014233280804199243,0.5681901667164422,0.1780546521464694,11194.554940866277
13556,Cu1.4Bi4.85Se8,450,-0.00011762542107926179,0.5705107138633813,0.2033537512116895,18469.48460691976
12641,WOx here x is 2.88.Matrial family tungsten oxide,450,-2.9666890781438158e-05,4.520117763724631,0.011533666730744182,142944.17505980702
13015,Zr3Ni1.7Pt1.2Co0.1Sb4,450,0.00014543727127521342,1.891811070268968,0.35613387085583514,69843.25329133542
12642,WOx here x is 2.92.Matrial family tungsten oxide,450,-3.7047258410089834e-05,3.654853611269247,0.008533463117872779,53465.08920653022
13555,Cu1.3Bi4.90Se8,450,-0.00010591484201588531,0.6482171472504662,0.18938327211289746,23805.630077952017
12643,WOx here x is 2.95.Matrial family tungsten oxide,450,-4.580352117287154e-05,3.2889876906710165,0.01022127882495082,30357.550132913297
13013,Zr3Ni2.6Pt0.3Co0.1Sb4,450,0.00016291813215415802,1.939196951595059,0.3555860139853163,56247.43742179512
6401,EuCd2Sb2,450,0.00026390418850270935,1.3384565410191922,0.26936994643443657,9980.155738501435
12661,NbCo(1+x)Sb here x is 0.3,450,-9.432115340995937e-05,4.875177724809672,0.12580154171915,147723.54319029304
13547,In4Se2.35,450,-0.00036782014327337546,0.9160430838072848,0.2082395396451815,3004.0809588445677
12662,NbCo(1+x)Sb here x is 0.4,450,-0.00013446583838745544,4.0063694929182265,0.10903044877719906,48235.212095457005
12674,TiNi(1+y)Sn. Here y is 0.075,450,-0.000165647924452565,4.482452306552832,0.2224800352628612,71093.1152346632
13009,Zr3Ni2.9Co0.1Sb4,450,0.00017628236046013515,2.333356986753931,0.3327581665001882,54081.23783193957
12675,TiNi(1+y)Sn. Here y is 0.25,450,-9.51644452052146e-05,5.5321335871822095,0.11655526534603973,146471.77142862804
6279,Yb14MnSb11,450,7.772460610569901e-05,1.0268703012024192,0.09044739350131008,39165.68114071536
6398,YbZn2P2,450,0.00014277832979137748,1.7385801229810929,0.04392919821111515,8741.910141958353
13007,Zr3Ni2.7Cu0.3Sb4,450,-0.00014527438732672642,3.79543818839476,0.2300543506003845,84200.00435912666
6396,Sr5In2Sb6,450,0.0003301701684509233,0.8830459149128991,0.001232956240264316,22.19436747322675
13006,Cu1.975Sn1.025Se3,450,0.0003960452937566364,1.3775806025798456,0.13539514813047196,2259.5768249992198
13005,Zr3Ni2.9Co0.1Sb4,450,0.00017561040509798002,2.329840570311162,0.33033717292003106,54480.83615414061
13217,Cu3Sb0.98Bi0.02Se4,450,0.0003828943602773328,1.3743946164106924,0.4681483271088678,9240.034149538238
6272,YbCd1.9Mn0.1Sb2,450,0.00017239414981988616,0.8567664790491512,0.4714640222920135,25660.69929873877
12663,NbCo(1+x)Sb here x is 0.5,450,-0.00011822256410084814,4.0334244858863455,0.06241618052043875,34199.66838039937
6399,YbCuZnP2,450,0.0001097706886673536,2.2009313686006564,0.1332806807895297,45533.10720994333
6273,YbCd1.6Mn0.4Sb2,450,0.00021667244227738602,0.7936316107612741,0.3550137569308365,12186.333943756941
12666,ZrCo(1-x)Pd(x)Bi here x is 0.3,450,-0.00013858352312309314,10.442844096936922,0.07513382680564418,72866.81726132872
6274,YbCdMnSb2,450,6.467471162807428e-05,1.1524286449980816,0.009117483490294842,5096.241430469098
13218,Cu3Sb0.97Bi0.03Se4,450,0.0003400582170198784,1.4210210689772405,0.16352653331812253,3828.831529832839
12667,ZrCo(1-x)Pd(x)Bi here x is 0.6,450,-0.0001199998517617373,9.104864269434646,0.06738127429576235,76646.62878654513
12668,ZrCo(1-x)Pd(x)Bi here x is 0.09,450,-0.00011162502772795332,8.104920578892473,0.06669205151008616,81965.97926950673
13011,ZrHf2Ni2.9Co0.1Sb4,450,0.00014229644873818683,1.6887332730696274,0.27539470903984004,48600.7051507031
12671,TiNi(1+y)Sn. Here y is 0,450,-0.00021678866065923504,5.366054552209565,0.17246286687087714,36493.51145398595
13010,Zr2HfNi2.9Co0.1Sb4,450,0.0001465044297692235,1.980242893828128,0.31606834647949106,62598.17453892003
13012,Hf3Ni2.9Co0.1Sb4,450,0.00015476484785333227,1.7966384121239127,0.2847642230876312,46480.95720169923
12640,WOx here x is 2.86.Matrial family tungsten oxide,450,-2.6280668725648315e-05,5.088840101258484,0.01437459967676534,218898.7346765613
6268,YbCd1.95Mn0.05Sb2,450,0.00016886739869514348,1.5273345210566005,0.3499417451487209,36549.17839378965
13199, Yb13.82Pr0.18MnSb11,450,8.606972213779512e-05,1.0817148298536474,0.11594295107871785,44146.74880082927
6408,Yb14Mn1.15Sb11,450,0.00017391933757954247,0.8557658731212244,0.061184282599970836,3615.051200421213
6414,Mg3Sb1.7Pb0.3,450,0.00020837997565503516,0.4423931015221732,0.12127451331358854,2559.489556265864
13030,YbCd2Sb2,450,0.00021963856278990067,1.5029676747004093,0.3601586649652622,22988.006250027553
13194,[CoSb2(GeTe)0.5]0.2(GeTe)10.5Sb2Te3,450,0.00016927276276583182,1.163158012251051,0.3905388209208207,39416.32438815226
12583,CdO,450,-0.00014061923147825863,5.2487796608785215,0.03749977579881697,23229.652400227733
12584,CdO,450,-9.328466108659359e-05,5.928965723804099,0.041033457825547716,56039.67583847828
12585,CdO,450,-7.367291175962537e-05,6.758307253226888,0.03160016774108837,81125.01563857157
13029,EuZn2Sb2,450,0.00014458771780085175,1.95723752238161,0.4406330168899169,92922.8810007532
12586,CdO,450,-6.288032168303215e-05,6.976965754416384,0.024391364879104455,85720.8315599993
6262,Sr3Ga0.95Zn0.05Sb3,450,0.00017127769787924092,0.923786373781886,0.1860364660264755,13091.923582595711
6263,Sr3Ga0.93Zn0.07Sb3,450,0.00015194158721868847,0.917277927925265,0.2134365803219296,16364.355149746285
12634,WOx here x is 2.9.material family tungsten oxide,450,-3.0494177239666997e-05,3.942959754045312,0.008579391585763313,79143.20332182062
13018,ZrHf2Ni2.7Cu0.3Sb4,450,-0.00015650923440257893,2.4156202500112154,0.23718816345578,49460.482841372956
13561,Cu1.9Bi4.60Se8,450,-0.0001208891552197911,0.5234110999256351,0.20133692992049507,16087.652869289663
13560,Cu1.8Bi4.65Se8,450,-0.00013649254011105283,0.5179400857026157,0.20894835195169395,12988.32459379799
13559,Cu1.7Bi4.70Se8,450,-0.0001383948657533627,0.5384518689846942,0.22201972555991226,13932.075559582185
13017,Zr2HfNi2.7Cu0.3Sb4,450,-0.0001657155500813021,2.7391278309472664,0.3760759262083687,80852.44709788317
12639,WOx here x is 2.84.Matrial family tungsten oxide,450,-2.819800346483808e-05,5.670137721143595,0.018701676540369663,308037.4590406847
13558,Cu1.6Bi4.75Se8,450,-0.00015978148162317882,0.4842957043182513,0.21193765131272616,8934.151904336884
6402,EuCd1.9Mn0.1Sb2,450,0.0002898011680503052,1.0883519773309502,0.13573438824569167,3557.6260547686516
13205,Yb13.47Sm0.53MnSb11,450,8.312703933810938e-05,0.7919472006955737,0.13966012710476222,33805.05377525185
13019,Hf3Ni2.7Cu0.3Sb4,450,-0.00012990917025598622,3.429088223884284,0.20475350926273386,90937.59751234089
6407,Yb14Mn1.05Sb11,450,0.00011751982590656533,0.8660117278222514,0.14754290987363025,17272.060449091536
13200,Yb13.66Pr0.34MnSb11,450,8.771610478642568e-05,1.0284398440369589,0.11958441768968595,39857.22839898387
6264,YbCd2Sb2,450,0.0001548295783353657,1.6585931015975408,0.3244400260754539,42365.592195907586
13202,Yb13.45Pr0.55MnSb11,450,8.330488999972705e-05,0.9572637175605774,0.11773439695076472,39900.269482457705
6406,Yb14MnSb11,450,9.935262957622688e-05,0.9582739943572568,0.09346695960666557,17722.248059155227
6405,EuCd1.4Mn0.6Sb2,450,0.00012422315630932927,1.0484018402015551,0.019925227133914217,2530.8769644912645
6266,YbCd1.4Mn0.6Sb2,450,0.00022717215687137582,0.7298938426416279,0.275153345808917,7753.19367734881
6404,EuCd1.6Mn0.4Sb2,450,0.00033145634349814886,0.9531443139502482,0.10351128384233156,1835.4919873635504
6403,EuCd1.8Mn0.2Sb2,450,0.00030574106726730896,1.0392635704348971,0.1333131553027961,2875.2318300112433
13247,In4Pb0.01Sn0.03Se2.6,450,-0.00023068023563585068,0.9534474634366882,0.41118462337757,14393.701574165569
12710,Cu2Ga0.075Sn0.925Se3,450,9.094219856996928e-05,2.0062852905602844,0.12538461695830616,59010.49893698352
13248,In4Pb0.01Sn0.03Se2.5,450,-0.00023846230558678612,0.9060417672275132,0.394246833713438,11995.871507011372
12711,Cu2Ga0.025Sn0.975Se3,450,0.0001376563637592913,2.027465214250366,0.13316036105672455,26642.696117302272
12980,Ni0.3Mo2.7Ni0.3Sb7,450,3.3745611185478234e-05,6.73248070556108,0.04206645334772188,553993.6240546714
12712,Cu2Ga0.05Sn0.95Se3,450,0.00010398458269934091,2.146000172273605,0.11681325974597362,42570.087746370315
12979,Ni0.25Mo2.75Ni0.25Sb7,450,3.425396473930812e-05,6.124347351493933,0.04622922743078288,542809.5474594922
12713,Cu2Ga0.075Sn0.925Se3,450,8.967196429422759e-05,2.2755245191606983,0.11372534566287305,59737.61666861433
12978,Ni0.2Mo2.8Ni0.2Sb7,450,3.4059956414767825e-05,6.507233819745312,0.040940812336888135,528590.3304601611
12709,Cu2Ga0.05Sn0.95Se3,450,0.00010464748780745405,1.8903738879365288,0.13007712348229394,41020.47166509098
12985,Ni0.05Mo3Sb5.4Te1.6,450,7.713722593406665e-05,4.996792637709776,0.09360045570934522,155186.72294105048
12984,Ni0.06Mo3Sb5.4Te1.6,450,8.746633284272592e-05,4.509081719003747,0.12049204482127412,155792.9811412663
12707,Cu2Ga0.075Sn0.925Se3,450,8.661013185805795e-05,2.1824425110533405,0.1512883880932187,82412.20667197298
13244,In4Pb0.01Sn0.03Se2.8,450,-0.00024227054029131274,0.8384308751206914,0.5037542726362556,12943.542774372396
12708,Cu2Ga0.025Sn0.975Se3,450,0.00013752752577184837,1.8361510476523144,0.1260518317345236,24255.284241729805
13245,In4Pb0.01Sn0.03Se2.7,450,-0.00023708975485424062,0.8144483055789721,0.4566856635105297,12253.539632186103
13506,K2Bi8Se7S6,450,-0.00014841912622285018,0.5574469887892892,0.2626326539709789,15745.812813890268
12977,Ni0.15Mo2.85Ni0.15Sb7,450,3.522734337063794e-05,6.311432379413789,0.04312431522648737,510515.6447263531
13496,K2Bi8Se7S6,450,-0.00014728422943486888,0.5573809532229705,0.2632063206194459,15756.407035761033
13495,K2Bi8Se9S4,450,-0.00015225142472347574,0.4896451316480832,0.2965105321422823,14349.825869128765
5981,Ns0.5Yb0.5Fe3CoSb12,450,0.00012735798786677236,1.8210587198872668,0.4927586312592187,115234.79195725631
13494,K2Bi8Se13,450,-0.00022633562459083614,0.3324753141845935,0.3436669830535006,4938.277018894309
12715,Cu1.94Al0.02Se,450,0.00012664158299541552,2.01866451069819,0.16966709822059345,46190.21485079372
12716,Cu1.94Ga0.02Se,450,9.33316288265168e-05,2.2071007384311114,0.1373885520442506,79916.32003795129
13497,K2Bi8Se5S8,450,-0.00022967359663466773,0.4506890604624076,0.2723228592217275,5246.292394934108
12976,Mo3Sb7,450,3.1002065351570095e-05,7.1038466940936456,0.02907852868871391,484831.0082623616
5978,Nd0.3Yb0.7Fe3CoSb12,450,0.00010131013868963004,2.290745792490389,0.2855534278032025,139566.68365162224
12706,Cu2Ga0.05Sn0.95Se3,450,0.00010422595199501517,1.9296543194191995,0.1439776502098865,46932.596509586845
12975,Ni3InSb,450,-1.2120761442329691e-05,14.391755948191884,0.005071605795767733,1119970.4601373186
12974,Ni3GaSb,450,-1.0862579662608083e-05,16.456789286844298,0.004019523566114522,1276744.699518203
5979,Nd0.3Yb0.7Fe3CoSb12,450,0.00011540443291097242,1.876149654038545,0.4522545243885009,132417.65471118494
5980,Nd0.4Yb0.6Fe3CoSb12,450,0.00012032803574523964,1.8562397480958368,0.4783213699712046,128939.13547244898
12999,Cu2.13Sn0.87Se3,450,4.422709425438185e-05,3.6786184852507,0.08408344404293562,301061.9009469878
12998,Mo2.2Ru0.8b7,450,7.993543104988173e-05,3.9191264585770074,0.07045932142510575,83749.36581205543
12997,Mo2.5Ru0.5Sb7,450,4.6064940728429743e-05,5.1076919583987,0.05754288060040971,366837.9084431394
12996,Cu3Sb0.98Sn0.02Se4,450,0.00016973073370789212,2.049481561220741,0.3798833362088568,49016.74062209207
13534,Cu2.95SbSe4,450,0.00036192022114629236,1.7220419746194968,0.2136547763602501,5208.8830884772115
13000,Cu2.10Sn0.90Se3,450,5.5790765962657436e-05,3.2198945966841617,0.09250969445627746,186565.84105999922
6392,Ca5In2Sb6,450,0.0003310670866476734,0.8892454881670744,0.053713763655481986,968.4177172720836
13227,CoSb2,450,-1.7007262788987448e-05,8.442737901749043,0.003641295288309817,236188.0104992952
6281,Yb13CaMnSb11,450,7.717991608421955e-05,0.8053037965565347,0.12288959859313625,38119.351822043376
6394,Ca2.5Sr2.5In2Sb6,450,0.0004633126891797405,0.7567082868306749,0.019394083601233642,151.9276604077566
6393,Ca3.75Sr1.25In2Sb6,450,0.0003749970187815909,0.7566625824351608,0.017245927276334738,206.21519572238464
13001,Cu2.05Sn0.95Se3,450,6.593432224430246e-05,2.125207094316375,0.07561533578869284,69148.63856247706
13525,Nd0.96Sr0.04OZnSb,450,0.00012292530389065298,1.904310127317535,0.04784167549966,10962.257925903285
13524,Nd0.97Sr0.03OZnSb,450,0.0001345795984000738,1.810595639522856,0.05140519796069373,9411.29344684283
13523,Nd0.98Sr0.02OZnSb,450,0.00015744324260764036,1.40548476500514,0.0582560327769452,6138.212651799773
13522,Nd0.99Sr0.01OZnSb,450,0.00016600933138910995,1.3068848549024268,0.055985242813291855,4940.993576095102
13521,NdOZnSb,450,0.00024560738649213507,1.1907668247111276,0.03854089913318684,1582.4632134838064
12987,Ni0.05Mo3Sb5.3Te1.7,450,7.979591064507453e-05,4.575993756541932,0.09927238708892193,127012.84610839214
12986,Mo3Sb5.4Te1.6,450,7.562927437382382e-05,4.192193412565191,0.08484356244112595,149931.84943048778
13526,Nd0.94Sr0.06OZnSb,450,0.00012917376099524466,1.6986154227982275,0.06468070360528347,12465.06354891571
12991,Cu3SbSe4,450,0.0003705004754784838,2.0441128365626766,0.25382224553900085,7145.163910660822
12995,Mo2.7Ru0.25Sb7,450,3.605598802501068e-05,5.323846677233925,0.04372450002796209,420854.40400337894
12994,Mo3Sb7,450,2.8584895042376355e-05,5.80314639963194,0.027179131729203804,483582.5111613802
13529,Nd0.93Sr0.07OZnSb,450,0.00011302764753468147,1.8848720929687663,0.059745666302530163,17000.425009581806
12993,LiZnSb,450,5.423083441210944e-05,4.747923698087455,0.059672192765483675,210867.1354014229