sampleid,composition,Temperature,Seebeck coefficient,Thermal conductivity,ZT,Electrical conductivity
13815,CuCr0.25In0.75Se2,400,0.00010975898684581764,1.040377426598142,0.15660359747531788,27835.870086443287
14781,Mo2.6Fe0.4Sb6.5Te0.5,400,4.943365059614393e-05,4.6203675584403925,0.07145534514353538,332814.8474013613
8187,FeSi2.3,400,0.00024827785590760654,9.788833852779069,0.0028559793145589442,1133.8355014609042
14780,Mo2.6Fe0.4Sb6.75Te0.25 ,400,4.351189159278939e-05,4.6019184670436015,0.06543029198072434,371329.3632946764
14778,Mo2.55Fe0.45Sb7,400,4.063000456950855e-05,4.735074596183668,0.052639205183120236,373184.63484461507
13816,CuInSe2,400,0.00012200430067671987,0.8785396538203268,0.17416284259931708,23358.87953017777
14777,Mo2.6Fe0.4Sb7,400,3.8251331977649794e-05,5.009463945192705,0.04985090332437003,424548.36440775625
14776,Mo2.7Fe0.3Sb7,400,3.214277345193403e-05,5.48352663100989,0.0338940132360557,450472.19195795077
14608,Cu2.2Zn0.8SnSe3.7Te0.3,400,9.945671662440216e-05,1.3759821069192018,0.06097117813325404,18349.42292860505
13812,CuCrSe2,400,0.00011656917825718072,0.9074708017268038,0.1590636503820154,24413.51711790963
5026,Sn0.3Co3FeSb12,400,0.00010740804336201638,1.3854078932568314,0.13749396933042435,38388.87218669912
14609,Cu2.2Zn0.8SnSe3.6Te0.4,400,9.187344343588168e-05,1.7208513852491898,0.03544292659068632,16820.129327780443
14735,Cu1.995Ni0.005Se,400,9.791728741944402e-05,0.96434859610419,0.2954054459687025,62270.38922364954
5871,Yb14Mn0.05Al0.95Sb11,400,0.00013933032588202618,0.5102275407936501,0.20228772108030305,13201.397110673797
14733,Cu2Se,400,0.00010845109234523104,0.9529372263399905,0.3130315101911555,55030.78043370992
13264,Cu2.3Zn0.7Ga0.12Sn0.88Se4,400,5.327908199076216e-05,2.5523674703852275,0.03787562833629171,95256.93138898633
9450,Pb3Bi2S6,400,-6.938555148168192e-05,0.7935735242002305,0.04927834003440182,18999.51793440376
9258,Mg2Si0.8Sn0.2 ,400,-0.00042636636910202717,2.2969377623642284,0.060132727504891674,1676.8145019397186
13247,In4Pb0.01Sn0.03Se2.6,400,-0.00021971223560209813,1.0090830966374107,0.33157245570784066,15558.373663913226
14606,Cu2.2Zn0.8SnSe3.9Te0.1,400,6.90874916127302e-05,1.9848926379446563,0.05750115309101056,51251.498150821775
10897,Fe2VTa0.12Al0.88,400,-7.894702907863477e-05,9.344005263708633,0.11403683205612095,397894.1110724479
5025,Sn0.2Co3FeSb12,400,9.921621989113604e-05,1.5735820471449078,0.11423694215095105,41717.28539765046
13248,In4Pb0.01Sn0.03Se2.5,400,-0.00022806153286161952,0.9571388649690056,0.3152828822552761,12675.164226459061
15072,CaB6:SrB6=25:75,400,-9.66397293982393e-05,15.840766029514759,0.04792325740333736,193679.17561069288
15073,SrB6,400,-0.00010797250200115189,22.98208539574893,0.035417798256892105,179160.41063737022
15075,ErB22C2N,400,-9.642498365215964e-06,1.3795052746761822,3.860939480606264e-09,0.14321127803280514
15077,ErB22C2N:ErB4,400,-1.4946055377429536e-05,1.9258661173971152,1.46550760697217e-07,3.1586463515133434
4482,CeyFe4Sb12,400,0.000101854279856905,2.7075581758933533,0.3131569798120997,193696.77171778388
15087,La3Te3.35Bi0.65,400,-7.685017657242855e-05,1.7818892935360824,0.02469122269551643,18624.02663973417
15089,La2.74Te4,400,-7.956748836680146e-05,1.1542560869748264,0.08715208882360942,40569.27127799293
15090,La3Te3.35Sb0.65,400,-8.531338719910569e-05,1.3633960609785074,0.01643503283925479,7696.5881823867285
1449,Bi2Te2.1Se0.9,400,-0.00018536443360516776,1.1245755812750375,0.5046976744628733,41766.93052746227
1446,Bi0.4Sb1.6Te3,400,0.00022571316605249662,0.8629006881724617,0.8731159809973341,38249.920125414
15050,Y1−xB28.5C4,400,-1.744630550965426e-05,1.3620684107165504,4.2459292984785496e-09,0.0475012174907546
5900,Co3.4Fe0.6Sb12,400,7.435665039687251e-05,3.5278922630128497,0.04153942947558936,77785.41791094161
4492,Cu3Sn0.15Sb0.85S4,400,9.427554186125652e-05,2.8059915005732297,0.04882514690889656,34794.080807604274
4491,Cu3Sn0.1Sb0.9S4,400,9.725473868578744e-05,2.9793235710912014,0.02076695610952227,13161.138063413671
15043,(Cu2Se)0.995(CuGaSe2)0.005,400,9.495043607775574e-05,1.1099968842493395,0.26322942308591035,73125.21024371023
15044,(Cu2Se)0.9925(CuGaSe2)0.0075,400,9.872263980552782e-05,1.0467202369363549,0.2861000901352827,70881.32842276014
15045,(Cu2Se)0.99(CuGaSe2)0.01,400,0.00010599769130432568,1.3577652509350648,0.2480930054549744,62939.81595712122
15046,(Cu2Se)0.985(CuGaSe2)0.015,400,9.654150406575066e-05,1.2186939217125987,0.2392020330411351,76727.38335458396
15047,(Cu2Se)0.975(CuGaSe2)0.025,400,8.932116248510124e-05,1.258827260563394,0.22266824268413293,79458.20536303293
13676,Tl7.95Sn2.05Te6,400,0.00018025881100450144,0.4764940098902191,0.5244141898517081,21523.201939208157
15048,(Cu2Se)0.97(CuGaSe2)0.03,400,8.265154176807676e-05,1.384365623530506,0.18202105739642832,88726.12944974151
4490,Cu3Sn0.05Sb0.95S4,400,0.00025863634847591205,2.776062540784656,0.04137732974584203,3620.1952167077934
13664,CuAgSe0.85Te0.15,400,-0.00012136904277165007,0.7122005414118071,0.4698671578033768,55266.15762804352
1448,Bi2Te2.1Se0.9,400,-0.0001821309720194528,0.7503603116640116,0.4387723568018391,24827.32321579469
15069,CaB6,400,-8.470658383929959e-05,21.895693759468433,0.04111934772308445,293419.9409596202
13627,Ag0.68Sb1.32Te2.26,400,8.974654467774707e-05,1.095657911532029,0.17514137277126385,63429.02642006653
15070,CaB6:SrB6=75:25,400,-8.105824785121883e-05,13.87272382244296,0.04778734650714034,243227.40942580753
15071,CaB6:SrB6=50:50,400,-8.619935368399631e-05,12.6601670962956,0.05670616766496174,239843.72490675512
13663,CuAgSe0.9Te0.1,400,-0.00011535453664700225,0.8997221034067633,0.519855009973905,87180.09208248403
13669,Ag2.0006Se,400,-8.855749406130081e-05,2.10993585446311,0.3026171482897585,199667.4426113815
4489,Cu3Sb1S4,400,0.0005309696669357056,2.8360961288791766,0.019518652554508336,431.9137325379936
13668,Ag2Se,400,-8.114099465303955e-05,2.6552757960889743,0.3160979538764413,270187.75528108585
1447,Bi0.4Sb1.6Te3,400,0.00021735616285384506,1.1139242270753873,0.8627058537422378,52273.98771138597
5901,Co3FeSb12,400,7.484621966630771e-05,3.00218519517734,0.06785050878145779,91318.02178077283
4480,Cey(Fe3.5Ru0.5)4Sb12,400,8.237896524296106e-05,2.6771965698382245,0.20504087208707966,200364.1360238232
13630,Cu2.95SbSe4,400,0.00037005727950944263,2.1825617411086697,0.1520530351621478,4926.603882633097
13139,Cu2Cd0.5Zn0.5SnSe4,400,0.00025959195337620723,1.9315969559293171,0.0418047577350664,2489.079935157677
4347,Yb0.05Co4Sb12,400,-0.0002164415265326345,5.348034382393665,0.026999365551123027,8580.229694870332
15199,CuGaTe2,400,0.00013070617081888287,2.9489673268892767,0.1460131801756314,51946.64399364414
4348,Yb0.1Co4Sb12,400,-0.00019393099623022687,3.9103203041240686,0.23407675142494055,68633.76134692281
13633,Cu2.95Sb0.97Sn0.03Se4,400,0.00012889342677973808,2.596917133205428,0.17427381468581865,55426.75531962911
13141,Cu2Cd0.45Zn0.55SnSe4,400,0.0002175768987755301,1.972623014478336,0.05692950769991825,5137.452442469257
15201,Cu25Ga25Te50,400,0.00012415031316717043,4.082749639705583,0.09183018462704813,52339.01427588222
6242,Sr3AlSb3,400,0.0003989553334238174,0.8927943961627933,0.010681548907093963,149.7880431142474
13130,Yb9Mn4.2Sb9,400,8.751950259489168e-05,0.6369991387500804,0.13691194795644016,28464.956331865968
13129,Yb9Mn1.2ZnSb9,400,4.0377558866851786e-05,1.287908343761794,0.036031069407502836,71157.71599982875
15215,In0.997Te,400,0.00016241067854270118,0.5842061403574461,0.5447918373896672,32774.29783351772
15216,In0.995Te,400,0.00020322865255164086,0.6612909418378627,0.25515704753855345,11312.988012780404
13128,Yb9Mn2.2Zn2Sb9,400,1.885740023022724e-05,1.618003177765981,0.01295733235026525,147391.12712443236
15217,InTe,400,0.0002453462831145021,0.6489585542152777,0.13972668961228846,4021.627560098304
480,Fe0.98Zr0.02Si2,400,9.489342504892172e-05,9.177909760188552,0.0005247433661160211,1117.3299951401511
15203,Cu25Ga26Te49,400,0.00013024382060680212,2.8619816618701432,0.1508919031796513,51459.67336552603
15204,Cu27Ga25Te48,400,0.00011983811013613479,3.662418787381589,0.07838328846071291,54367.880042118515
15205,Cu30Ga22Te48,400,0.00016450005114454432,5.190348477597354,0.00784583930277137,3522.2890211140298
15208,Ag0.04PbTe,400,-0.00031689672219084917,1.6167080959488551,0.2474546527861323,10301.078975101676
15209,(Ag0.01PbTe)0.945(Ag2Te)0.055,400,-0.0002958390929401164,1.1722296035150488,0.4184416591613623,13526.532352570539
15210,(Ag0.02PbTe)0.945(Ag2Te)0.055,400,-0.00030864415532891624,1.093718358843244,0.40055287971118897,11743.098426160579
15211,(Ag0.03PbTe)0.945(Ag2Te)0.055,400,-0.0003132690687867118,1.1360414442350597,0.3220095641084303,9001.672468696688
13142,Cu2Cd0.4Zn0.6SnSe4,400,0.00018964173209139973,1.8209393380736556,0.06858725227523671,7202.949986302409
13631,Cu2.95Sb0.99Sn0.01Se4,400,0.0001936666485280519,2.3642175499367712,0.2040572251911087,26249.41329296083
15122,Tl9Sn0.6Bi0.4Te6,400,6.201115397219219e-05,1.0281141586441884,0.1524733471974396,99747.34621903318
15113,AgSn18SbTe20,400,5.830815512903842e-05,2.8222176764952485,0.13201807522120054,278944.3476423975
4479,Cey(Fe3.6Ru0.4)4Sb12,400,9.028430227848838e-05,2.5051887314798567,0.2490056189545884,198433.5308858172
4478,Cey(Fe3.7Ru0.3)4Sb12,400,9.696678474451936e-05,2.381619402634227,0.3170816200009282,193501.35484618528
4477,Cey(Fe3.8Ru0.2)4Sb12,400,9.9282286009375e-05,2.5062188493838864,0.3204741413788621,199876.33679416726
4476,Cey(Fe3.875Ru0.125)4Sb12,400,9.949877376673802e-05,2.5501818597878567,0.308266218365758,196380.23059539465
4475,Cey(Fe3.925Ru0.075)4Sb12,400,0.00010252661142657095,2.6231990356585246,0.32691649579204474,196981.9125254427
15112,AgSn18SbTe20,400,5.8751169949039224e-05,2.9659576452936016,0.12116933203812105,257093.422031302
13143,Cu2Cd0.35Zn0.65SnSe4,400,0.00022164138992997296,2.0810827635973794,0.05727833618920027,5304.656672557953
13634,Cu2.95Sb0.96Sn0.04Se4,400,0.00011749249122232851,2.9026272603426544,0.16619760093537495,74035.15028373258
13150,Cu2.103Cd0.915Ge0.911Se4.071,400,0.00018032092067375558,1.3394300483047177,0.049990238398372085,4878.494048418888
15125,Tl9Sn0.2Bi0.8Te6,400,0.00011675247574235835,0.8864298202748637,0.2762689224463436,44207.20974159568
15127,Tl8.67Sn0.50Bi0.83Te6,400,0.00013278997486732748,0.4625987989451522,0.4510303715072336,29149.85135778228
13149,Cu2.105Cd0.892Ge0.909Se4.094,400,0.00026192130728879486,1.1512342069505437,0.05409202376254299,2096.212703577702
13148,Cu2.123Cd0.935Ge0.901Se4.041,400,0.00033046361166339124,1.1851405256906649,0.049430152272880695,1339.3753742242018
15131,Tl8.33Sn1.12Bi0.55Te6,400,9.236199197210272e-05,0.4966362303732237,0.314200293877175,46215.466484365155
4724,Yb0.5Co4Sb12,400,-0.00012412788827297977,2.9906186965199786,0.4558001869665002,217933.21054531183
5899,Co3.2Fe0.8Sb12,400,8.159140019441824e-05,2.923988283445736,0.08450931392764449,92146.5833428252
4709,Ca0.20Co4Sb12.46,400,-0.0001275760799042948,3.8308180187148126,0.0764731581366937,39352.783794788935
13609,Ca5Al1.98Zn0.02Sb6 ,400,0.0002062094524249844,1.0018468353436358,0.04608082890254432,3152.777923919784
14957,TiSe2,400,5.8678738805385755e-05,1.8881837066573568,0.04243862088384308,66012.40282746038
12043,Zr0.98La0.02NiSn0.98Sb0.02,400,-0.0001147099453389324,7.954694636740142,0.24599167678541298,324935.62565355137
13611,Ca5Al1.9Zn0.1Sb6,400,0.00014835510993655847,1.1582901827664598,0.051272479698451306,7114.931104415379
14967,Ag9TlTe5.2,400,0.00026055409647848235,0.2701694499709239,0.353468708410551,3371.457822650936
10789,Ba0.7K0.3Cu2Se2,400,5.425122503284455e-05,2.4050928390299515,0.08646454838596906,171791.62849207188
12044,Zr0.98Ce0.02NiSn0.98Sb0.02,400,-9.602065789609296e-05,5.6254939776828,0.14909133377444228,216737.28873464686
14968,Ag9TlTe5.3,400,0.00027425829514969395,0.23912965144510226,0.2811885311219511,2201.043057202571
4710,Ca0.15Co3.98Ni0.02Sb11.80,400,-0.00013702951650857128,4.279226083011549,0.18672575586615697,94376.67709496604
14966,Ag9TlTe5.1,400,0.0002565877785004063,0.2093712034707305,0.3669457687373175,2894.5284342215423
14965,Ag9TlTe5.05,400,0.0003337477080759746,0.23487833432753155,0.19844064614352766,1143.4952144147874
14960,Cu0.04TiSe2,400,-7.261117088579554e-05,2.021068589607325,0.06479241256389477,68545.08921079007
13612,Ca5Al1.8Zn0.2Sb6,400,0.00010825584120786,1.2859950501993158,0.0802477510984578,21845.19530404164
14961,Cu0.06TiSe2,400,-7.712589076363106e-05,2.115637577543524,0.11695272094344543,105045.84487559355
13201,Yb13.55Pr0.45MnSb11,400,6.64895957441369e-05,0.9613897291124004,0.09586506181897032,43267.37294523345
14962,Cu0.08TiSe2,400,-6.317915107815267e-05,1.7898996117029624,0.10217129117768836,129231.57854858336
14963,Cu0.11TiSe2,400,-6.516457595462273e-05,1.7160226427919292,0.10961746804483877,132213.58491542994
9485,(GeTe)12Sb2Te3,400,0.0001727637206748722,1.5314849107955797,0.3110519878450094,42288.9265053742
4723,Yb0.4Co4Sb12,400,-0.00013471743458686247,2.974887349518052,0.5093902341756674,202927.40492913095
5878,Yb14Mn1.05Sb11,400,0.00011064887514636682,0.8801322599190132,0.10957070812382058,17327.035112508293
13217,Cu3Sb0.98Bi0.02Se4,400,0.0003996861733463027,1.5648155808628876,0.3938342718538751,9260.38465139972
4722,Yb0.35Co4Sb12,400,-0.00014808064281395596,2.7923444846346395,0.6024723628112024,183113.48086168038
10810,La22.3Bi35.3Te37.2Fe5.2,400,-3.577413146090134e-05,0.4562366721862484,0.0034306017625980786,3447.4878000461736
4721,Yb0.3Co4Sb12,400,-0.0001548648679379111,2.8634082116545385,0.5837497405305463,167172.68130350715
13218,Cu3Sb0.97Bi0.03Se4,400,0.0003602744892415999,1.6019664393230548,0.1284462702827436,3636.431414715456
8184,FeSi1.9,400,0.00018263280523860055,6.6517679774558625,0.003761959856178084,1875.571728445122
14923,Ag0.95InTe2,400,0.0005224866622860966,1.141336095753671,0.00010937655967248104,1.1432136545069098
14933,TlSbTe2,400,0.00012633219316074976,1.1843823238237972,0.280520101569983,52687.14757324385
14935,Bi2Te3,400,0.0001978186837293085,1.3325013341593446,0.9068228426341404,77196.12434879753
14936,(GeTe)1x(AgSbTe2)x,400,0.00012186510063861482,1.4971599525806731,0.4533769398569098,114263.87134956564
4711,Ca0.18Co3.97Ni0.03Sb12.40,400,-0.0001387271462206,4.8751540431184415,0.2878888894712686,165054.95648215886
14938,CuTl9Te5,400,0.00013979065370404702,0.4614773189552174,0.09676227408605714,4995.81289729544
14940,Tl2Te,400,0.00012363470118625735,0.3393216863480738,0.04908968557290222,2328.3440834746225
4712,Ca0.18Co3.94Ni0.06Sb12.40,400,-0.00013383160867125798,5.150394881673953,0.19299366908259816,147415.31562559275
14931,Tl9BiTe6,400,0.0001882379889085366,0.4012808020292069,0.5728856506150726,14923.926626402166
13608,Ca5Al2Sb6 ,400,0.0003836362398816896,1.104078326935722,0.028549415088212536,545.9197562409586
15024,(Cu/ Fe)Mo6Se8,400,3.3841296327244985e-05,1.3980411796757308,0.03204572032292816,93992.69356624184
15025,YbSb2Te4,400,0.00010518809841226828,0.6598492645540504,0.41898291923782977,62762.005946026446
4520,CoSb2.7Te0.3,400,-8.849197601324195e-05,4.420231882048394,0.1085639720434036,155955.84324080465
4519,CoSb2.8Te0.2,400,-0.0001028729188260003,4.165345144807182,0.15561709295336268,158772.0449328447
4518,CoSb2.9Te0.1,400,-0.00011375762386444165,4.9468996821845685,0.12769337878004292,131045.55436964508
15023,Ag3.8Mo9Se11,400,0.00010579274516209489,0.8445338693491572,0.18692536516605476,32496.718936740013
15022,Ag3.4Mo9Se11,400,8.049342921233224e-05,1.283267667112937,0.11614492065650335,53873.32196810546
4616,La0.3Co3.68Ni0.32Sb11.84Te0.16,400,-0.00015385822049425186,1.8334323996950488,0.45006017007367616,80675.84307697063
13185,Eu5In2Sb6,400,0.00021047331670161893,0.9231695164644776,0.030383249580562245,1605.8273626575324
15015,(CuInTe2)0.99(2ZnTe)0.01,400,0.00021424954278252527,3.5026063743834817,0.1322063951915542,22523.148385494533
15016,(CuInTe2)0.99(2ZnTe)0.01and TiO2,400,0.00018269284391274462,3.1082097999267737,0.14533890800940866,29236.861657961523
15017,Ag9GaTe6,400,0.00036273048391768464,0.2602066494830877,0.1329831163735254,771.7405923158784
15018,GeSb6Te10,400,4.6569793700746085e-05,1.9204772924487876,0.09126008201729824,170000.80824052586
15021,GeIn0.6Sb5.4Te10,400,9.969536593081125e-05,0.4639775432661128,0.3362968301283463,38071.214037862184
13687,Ag0.5Pb6Sn2Sb0.2Te10,400,0.00014246253690743728,1.1805328008889038,0.40992667440467456,61477.26951701209
8962,CrSi2,400,0.00014053798750049998,10.193892766718099,0.060568271201534365,83538.07701848155
13680,Tl7.95Pb2.05Te6,400,0.00011545447509374642,0.6193982724872042,0.2884517246442878,32971.836394992046
9489,(GeTe)17Sb2Te3,400,0.00018261132658586824,1.4081671264040734,0.5794692636796309,62066.873418335614
4514,Co0.99Ni0.01Sb3,400,-0.00011373489389400383,6.2259741226206575,0.033014652980806566,44677.00466002757
15042,Cu2Se,400,0.00010683075655774666,1.0410364571047028,0.2984601510434036,62121.605917155
15034,In4Te3,400,0.00020267196143242464,0.5653702151104054,0.013207716153446595,495.78929692420974
5898,Co3.6Fe0.4Sb12,400,6.078746382411431e-05,4.206551761168159,0.025283845270634157,85661.26598185247
9487,(CoGe2)0.2(GeTe)17Sb2Te3,400,0.0001849302627173617,1.4084912966943572,0.5965358399567122,60470.74895715372
4516,Co0.8Ni0.2Sb3,400,-5.047418503710314e-05,5.790412084953872,0.02642504179384807,149316.80043431147
4615,La0.3Co3.68Ni0.32Sb11.84Te0.16,400,-0.00014363892723575982,2.199176519066577,0.3235741129110742,80935.96831717789
15013,CuInTe2,400,0.0004187153808598947,3.381748692002464,0.050483732774209485,2327.269499823874
13186,Eu5In1.975Zn0.025Sb6,400,0.0002155401389934306,0.908502940224602,0.11008134540320197,4886.71524135269
14986,TlTe,400,4.653446471035856e-05,4.033068050912603,0.033122422533161035,137734.41856107535
14987,Tl5Te3,400,2.3450002526398057e-05,3.5048986631614687,0.01701567174451278,249088.46742440577
14988,Tl2Te3,400,0.0005759413370808717,0.3401779942329778,0.03871163673446937,88.39720873703253
4619,Co0.92Ni0.08Sb2.96Te0.04,400,-0.0001252447863605727,4.051742507940887,0.1581627760635811,97152.52495049572
14989,Cu2SnSe3,400,8.586277838006034e-05,1.575018391576971,0.06721165129611106,35824.4377141741
14990, Cu:Co:Sn:Se = 1.92:0.16:0.69:3,400,8.503848894229618e-05,0.9638605223601646,0.12345115633689555,38595.31642693172
9482,(CoGe2)0.15(GeTe)12Sb2Te3,400,0.00018695642145904218,1.4273625381397868,0.3088620176372451,37108.965406848365
14991, Cu:Co:Sn:Se = 1.94:0.15:0.71:3,400,0.0001276628489367899,0.9855723845707322,0.1094303028936438,15762.821845709517
14992,Cu:Co:Sn:Se = 1.82:0.16:0.76:3,400,0.00015975630030008574,1.026700537996103,0.10736711182274412,10180.837692453282
13195,(GeTe)10.5Sb2Te3,400,9.325087974496442e-05,1.9359097104537344,0.14374708530823233,68985.8923276769
14985,Tl2Te,400,0.00012820917512963427,0.34571452463450153,0.04511337288730799,2025.771997528436
14983,Cu2ZnGe0.95In0.05Se4,400,0.00012360026086409752,2.494673222887286,0.03636396970361794,17177.678630891616
14977,Cu2Sn0.925In0.075Se2.1S0.9,400,8.049380647478149e-05,1.6950457806167505,0.1231740542179614,80101.36964515105
14979,Tl8GeTe5,400,0.00017075270653157102,0.16066273565016348,0.272609251756733,3794.0052050677778
14980,Cu2ZnGeSe4,400,0.0001120126836286619,1.2809904073136034,0.022323182860116114,5488.274424451467
14982,Cu2ZnGe0.925In0.075Se4,400,0.00013066103878235815,2.0049598683616527,0.02810863093889088,9693.574364786911
14984,Cu2ZnGe0.9In0.1Se4,400,0.00011266764817165418,1.920381775197444,0.04278814908909484,18832.96805478585
13706,GeSb6Te10,400,4.730662553061308e-05,1.921471930111176,0.08859106164112662,175541.74686555465
10778,,400,-0.0002195442729938248,3.977569435066029,0.10051852336700218,20094.456008525995
15003,(CuInTe2)0.995(2ZnTe)0.005,400,0.00024087620658199603,3.5463752162396767,0.10451858956878844,15970.938090206577
4617,La0.3Co3.68Ni0.32Sb11.84Te0.16,400,-0.00016752260209106968,2.0061070282718068,0.40123746904669294,69532.2440371244
15004,(CuInTe2)0.99(2ZnTe)0.01,400,0.00021585414537420817,3.497618687656197,0.13784885150685222,22251.797372577927