sampleid,composition,Temperature,Seebeck coefficient,Thermal conductivity,ZT,Electrical conductivity
16531,Zn4(Sb0.995Te0.005)3,350,0.00013779072678161302,0.7521399219168982,0.5338271642611311,66965.46982773543
15046,(Cu2Se)0.985(CuGaSe2)0.015,350,8.542759341599021e-05,1.2603371407092028,0.15937721910781733,91392.40607973348
16530,Zn4Sb3,350,0.00013672175787535765,1.15280036115892,0.2139754975602433,37154.726513916736
16535,Zn3.96Cd0.04Sb3,350,0.00015032970689038216,0.7250075999918503,0.4688081021393013,43020.361859966935
15042,Cu2Se,350,9.463038680813409e-05,1.0915422695984152,0.1986881342739466,79628.93661819477
15018,GeSb6Te10,350,3.804219295475649e-05,2.0045951952611585,0.04950316256830079,209500.8788956052
14998,Ag2Te,350,-8.330979846612991e-05,1.415642937607999,0.2222690103437831,129530.61585139057
11209,Ag33.1Pb4.3Te62.6,350,0.0003775703885903908,0.35996265127342403,0.34528105492994104,2461.2023993783305
11210,Ag31.8Pb3.1Te65.1,350,0.00039358902712184927,0.4992792534830723,0.1872310630749695,1816.0309735413227
15000,Cu2ZnSnSe4,350,4.95476008974372e-05,1.8122667592276267,0.02125842543385715,44797.066669965156
14999,Cu2ZnSnSe4,350,7.89488538719015e-05,1.5863948101768228,0.025514565338580857,18391.09468722653
14988,Tl2Te3,350,0.0006079490950911446,0.3589286495516685,0.01498175296997284,45.518703856793095
16567,Mn28.4Re8Si63.6,350,0.00012557389747116962,1.6426756626975028,0.2566012808098713,76102.5482052892
16566,Mn30.4Re6Si63.6,350,0.00014461367169408008,1.6012566048510777,0.2970999200274618,73028.43397691082
16565,Mn32.4Re4Si63.6,350,0.00014203989523385742,1.8608851657966317,0.2187782110637212,59894.41772571398
16564,Mn36.4Si63.6,350,0.00014219924923935252,2.7793469402700666,0.09977219572663044,41548.52660502135
15003,(CuInTe2)0.995(2ZnTe)0.005,350,0.00023328927527610995,3.902528549777872,0.0783249256224585,16046.801773343845
11308,Cu3SbSe4,350,0.00039099433729757787,2.728939572902481,0.04728124077498511,2428.179275773188
11311,Cu3Sb0.985Ga0.015Se4,350,0.0002318724411214248,1.8273248483525635,0.05727280529353479,6352.352638709457
11292,[BS]:[BT] = 1:9,350,-0.00017064990456428566,0.5645802770364253,0.5080829286987841,27033.60026265478
11293,[BS]:[BT] = 1:4,350,-0.000194767691810795,0.5390238275631731,0.5745372979095256,22744.514755896846
11294,Bi2Se3,350,-5.555818907771056e-05,0.5340090457600362,0.04202840069947585,19083.035566934657
14935,Bi2Te3,350,0.00020004033971635944,1.1267672310152466,1.2746718185772332,102548.5162954441
14936,(GeTe)1x(AgSbTe2)x,350,0.00011160805987859275,1.4557455840192386,0.3813424024759873,127333.13094432655
14931,Tl9BiTe6,350,0.000179074875352395,0.3782775390269051,0.5292121979852479,15951.605078209876
14924,Pb0.72Mn0.03Sn0.25Te1.00,350,0.0002064487146070924,1.0097061934397915,0.1541482110301096,8390.24525881001
14923,Ag0.95InTe2,350,0.0005021828499130223,1.3046706078286967,5.600637325889003e-05,0.8278402355929696
16672,AgSbTe2,350,0.0001720928479992279,0.7482851660119421,0.5984958525562196,43457.400232737484
16671,Ag0.84Sb1.15Cu0.01Te2.16,350,0.00027096292503447634,0.8328363471679348,0.7547487043869271,22551.248821888377
16670,Ag0.84Sb1.15Yb0.01Te2.16,350,0.00026886940625559994,0.8718407168245579,0.8037137061771803,24837.958801850127
16669,Ag0.84Sb1.15Ce0.01Te2.16,350,0.00029431590793630217,0.9451532952200434,0.7896004899208484,22272.98237620855
16668,AgSbTe2,350,0.00029426114459973164,0.7397419528343678,1.0533814346279151,24115.232736498925
10896,Fe2VTa0.08Al0.92,350,-0.0001022701881113612,9.691266179332306,0.1655203347061345,385356.5390033727
10895,Fe2VTa0.05Al0.95,350,-0.00011767348356745921,10.818434302313843,0.19382291594626014,357024.05322735594
16714,Ag(Sb0.9Bi0.1)Te2,350,0.000205367703915636,0.8398039915750798,0.13910822269794734,7532.337469191149
16713,Ag(Sb0.93Bi0.07)Te2,350,0.000259542610820463,0.6896086033132477,0.34527164345595124,10658.047190657397
16711,Ag(Sb0.97Bi0.03)Te2,350,0.00027914828233348396,0.6303261987982418,0.4053381266247906,9153.277642159206
16710,AgSbTe2,350,0.00018875497515110948,0.772419734253456,0.5192253042026396,31342.969413986488
16712,Ag(Sb0.95Bi0.05)Te2,350,0.00023045198349703604,0.5848408489793319,0.5616383281817923,17151.180166934657
10897,Fe2VTa0.12Al0.88,350,-7.322862691356114e-05,8.722812204457352,0.10261150013312062,407966.4453264224
13751,Sn0.067Sb0.667Te0.266,350,4.3199574144218575e-05,8.569380027344947,0.013410577231706126,182631.8545069265
13748,Cu2Se,350,7.034889621715072e-05,1.688649845126616,0.10184302194957053,109045.41089885854
11015,Fe2.08V0.92Si,350,-5.324531375954926e-05,8.401118683202515,0.05261540289748557,423839.2597865442
11014,Fe2.2V0.8Si,350,-5.2340051538020945e-05,8.055596770712329,0.04319227083119165,373591.5784705813
13676,Tl7.95Sn2.05Te6,350,0.00015423572990578622,0.5126487590714774,0.4013529167278778,25002.938827627284
16646,Zn4Sb2.92Te0.08,350,0.00015291902281186674,0.6828851508077821,0.3273417318521732,27526.643799451384
11011,Fe3Si,350,-1.3603433108106767e-05,21.380910880324933,0.004605451911356084,1500618.4118894348
13680,Tl7.95Pb2.05Te6,350,8.657196130855809e-05,0.6830444063925509,0.1691324890146637,39431.60505201589
13679,Tl4PbTe3,350,4.989854176232561e-05,0.908556305568479,0.08208445918129519,98281.63852941435
16645,Zn4Sb2.94Te0.06,350,0.00013078840861341931,0.9174842214209054,0.2286677976071569,36146.679631849714
16644,Zn4Sb2.96Te0.04,350,0.000103697296969326,0.7987514006239124,0.2785567677965073,61102.675338647714
16642,Zn4Sb2.98Te0.02,350,9.289187233233828e-05,0.8757443552671836,0.2208224460901188,69862.45046047815
16640,Zn4.08Sb3,350,7.856889675219087e-05,1.2455299290736663,0.11894256540943128,75244.55238174243
16639,"HMS(Mn4Si7, Mn11Si19, Mn15Si26, and Mn27Si47)",350,0.00014483657936320018,2.195830971855893,0.15065692542288256,43536.934675062985
16638,"HMS(Mn4Si7, Mn11Si19, Mn15Si26, and Mn27Si47)",350,0.00013258985667089924,2.5593325915645693,0.1364816758398902,50760.70376515807
16637,"HMS(Mn4Si7, Mn11Si19, Mn15Si26, and Mn27Si47)",350,0.00013800395732451576,2.7020256838943233,0.13072377500386392,48049.330795951435
13669,Ag2.0006Se,350,-9.581873995084152e-05,1.9694255807498664,0.34655514771489593,208212.05762478863
14959,Cu0.02TiSe2,350,-7.450302231675962e-05,2.0569791625811944,0.06944985263068354,64458.47531113785
16655,AgPb18SbTe20,350,-0.0002567440163646543,1.239465530352374,0.4503730592851112,23889.680972337843
10977,Nb0.99Ti0.01CoSn0.9Sb0.1,350,-8.085579985228457e-05,5.945550734824499,0.09686913107831732,275919.1633113397
10976,Nb0.99Ti0.01CoSn0.92Sb0.08,350,-9.094870044930428e-05,6.584109396136797,0.0885637931034483,210827.68570611312
10975,Nb0.99Ti0.01CoSn0.94Sb0.06,350,-0.00010372657214231171,5.896810943171216,0.09469724799744624,150549.64587755452
14957,TiSe2,350,4.9904904122115054e-05,1.8442200587290247,0.029322361244685582,65988.79954098655
10972,Nb0.99Ti0.01CoSn,350,-0.00012194998508020136,5.9565588040032305,0.025275526408546963,26843.493528106683
10973,Nb0.99Ti0.01CoSn0.98Sb0.02,350,-0.00012934995989860704,6.47867669350242,0.06851425745430481,73503.80449284434
10974,Nb0.99Ti0.01CoSn0.96Sb0.04,350,-0.00011409554007638704,6.887295589109308,0.07002852080329046,115664.36709205793
13560,Cu1.8Bi4.65Se8,350,-0.00012498302480200475,0.5272326874709581,0.15674738014497666,15103.020043478427
13311,Ce0.7Cu0.3Se2,350,0.00014376290631398363,2.077234959911856,0.03644198986477756,12218.933012846057
13337,MgAg0.97Sb0.9925,350,0.00025382792246481957,0.7863900763195153,0.8878284986271237,30964.09692661896
13336,MgAg0.97Sb0.99,350,0.0002648157285123066,0.7490423686997567,0.864376514850689,26340.5637982151
13325,MgAgSb,350,0.00012534638522549487,1.188472370580011,0.4596136920206776,103567.93902905074
13338,MgAg0.97Sb0.995,350,0.00022778977868606362,0.8548259002082891,0.9241812141569961,43142.95756878313
13308,CeSe2,350,0.0004967673041749373,1.0091215764926829,0.0014099581513987544,14.2318089181864
15199,CuGaTe2,350,0.00012050525398990306,3.183814720288889,0.09765659475310798,62531.59300735831
15203,Cu25Ga26Te49,350,0.00012096927825202095,3.0891347674924265,0.10146627559449578,61741.041354578265
15208,Ag0.04PbTe,350,-0.00033118042771100066,1.6815171465769518,0.1625135426849727,7607.926510239666
15209,(Ag0.01PbTe)0.945(Ag2Te)0.055,350,-0.00030591061240126734,1.235092954718072,0.31468219322800484,12031.372248134056
15210,(Ag0.02PbTe)0.945(Ag2Te)0.055,350,-0.00032079467869980096,1.1460812473894697,0.27690422661053804,9690.657320615786
15211,(Ag0.03PbTe)0.945(Ag2Te)0.055,350,-0.00032594598299373937,1.1911226998827809,0.20135002391086032,6701.821184594723
13309,Ce0.9Cu0.1Se2,350,0.0003228080848249754,1.0730703565554351,0.05325516414282494,1670.6200333635165
16417,TlCu3Te2,350,4.743113925170545e-05,0.6967905055802578,0.08167801031808126,74917.37965447121
16407,FeSb2Te0.8Sn0.2,350,5.986051469345697e-05,2.3070441097783787,0.05808730370785425,106853.358829624
16425,Ag0.5In0.3Pb5Sn4Te10,350,7.021866279920095e-05,1.6258522675994338,0.17857614214057127,136892.3000029773
16424,Ag0.5In0.35Pb5Sn4Te10,350,8.271384216149122e-05,1.6475491350956353,0.1647131928488429,115195.22579468365
16423,Ag0.5In0.4Pb5Sn4Te10,350,0.00010267275734539696,1.5277251481653407,0.1922682478856164,82558.57667317166
16422,Ag0.5In0.425Pb5Sn4Te10,350,0.00016569742631817295,1.0520728383136542,0.26523492176478525,29146.191087965966
16421,Ag0.5In0.45Pb5Sn4Te10,350,0.00021163869925475582,0.8492848336792791,0.07151665670077245,3434.910525979375
16406,FeSb2Te0.85Sn0.15,350,7.759558104631378e-05,2.5231480921932303,0.06879056559596985,96252.80276896336
13348,Zr3Ni3Sb4,350,0.0004375593411057594,3.5399768316698554,0.03810124392486202,2100.493575753184
16388,Ca2.8Yb0.2Co4O9,350,0.00013026214243683988,1.0406687735246594,0.0388308632344066,7390.525808410352
16403,FeSb2Te,350,0.00014618941958496998,3.2432691758194303,0.0550748434768796,24827.05864616512
13355,Zr3Ni2.7Cu0.3Sb4,350,-0.00014451139958590223,4.019086384128524,0.18902476120223932,91328.91497182957
13354,Zr3Ni2.5Cu0.5Sb4,350,-0.0001013064979174657,3.926835457496556,0.14014411486925413,133564.9185422317
13352,Zr3Ni2.7Co0.3Sb4,350,9.942898760333216e-05,2.8272928503465016,0.12744366626204565,99090.92995708193
13351,Zr3Ni2.8Co0.2Sb4,350,0.00012999146983367623,2.4761894388892403,0.18474371714919804,77579.50888597283
13349,Zr3Ni2.95Co0.05Sb4,350,0.000203051032503193,3.074921939628728,0.196998441194969,39322.52477470791
13244,In4Pb0.01Sn0.03Se2.8,350,-0.0002183323967296828,0.9424120410150436,0.2660884575091177,13566.167055792299
13243,In4Pb0.01Sn0.03Se2.9,350,-0.0002187690049743842,0.859126750979812,0.2527996880706013,11739.051091844913
15215,In0.997Te,350,0.00014559807454772665,0.6261735860067266,0.4630304669328816,38268.340020572265
15217,InTe,350,0.00023401285187788686,0.6867381489402905,0.12524158045555864,4587.051692009995
15216,In0.995Te,350,0.000182813834560376,0.70274277791688,0.22094668192724404,13400.49820672739
13245,In4Pb0.01Sn0.03Se2.7,350,-0.0002135627121541576,0.9125987699680196,0.2566813368693652,13406.47468292361
15238,As2Te3,350,0.0001277959965384606,1.1008385992524494,0.3241307050562036,61915.49569404306
15239,As1.983Bi0.017Te3,350,0.00013436681408314773,1.1128378301959163,0.4472937223079626,78838.9253837801
13227,CoSb2,350,-7.330281307746353e-06,9.469823802531838,0.0005060525635309735,254816.8838237057
13217,Cu3Sb0.98Bi0.02Se4,350,0.0004164779864152727,1.7552365453150829,0.3195202165988824,9280.824992119416
13218,Cu3Sb0.97Bi0.03Se4,350,0.0003804907614633213,1.7829118096688694,0.09336600724736466,3462.4424768520207
13266,Ca0.84Ce0.16Ag0.9Sb,350,8.239960531834464e-05,0.5633965712856235,0.2230700894453881,49992.53618453845
16342,Ge2Sn2SbTe5,350,8.463208855954319e-05,1.15286182891067,0.15486362321005054,71217.79355051767
16343,Ge1.5Sn2.5SbTe5,350,7.994892689606835e-05,1.4199462335580781,0.10875535723457344,69028.62732787483
13275,Zn4Sb3,350,0.00014035586526147683,0.8827014180451611,0.3634574988004256,39064.316917507516
16345,Ge0.5Sn3.5SbTe5,350,6.911907661665475e-05,1.8838022611425893,0.10056368981908667,113295.4879102606
16344,GeSn3SbTe5,350,7.16711062074745e-05,1.454070321499166,0.09527987369682192,77060.2340002904
16341,Ge2.5Sn1.5SbTe5,350,8.950309726509771e-05,1.3995062538653114,0.11929922889682318,59548.154562936135
13248,In4Pb0.01Sn0.03Se2.5,350,-0.00021766076013645291,1.008235962710498,0.2363189307971141,13436.007846997407
13247,In4Pb0.01Sn0.03Se2.6,350,-0.0002087442355683456,1.064718729838133,0.25196028803811144,16928.119161084287
16339,Ge3.5Sn0.5SbTe5,350,0.00012501618625080632,1.2957509258673217,0.15161933052695678,35914.974783499965
13497,K2Bi8Se5S8,350,-0.00020380224487514888,0.4736925722884434,0.19156620116291576,6240.2593859888875
13496,K2Bi8Se7S6,350,-0.00012591613364477784,0.5910679428438675,0.16187685698584758,18790.950571356552
13495,K2Bi8Se9S4,350,-0.00012874655333305142,0.4914740922735322,0.21034009619038532,17398.18872390756
13494,K2Bi8Se13,350,-0.0001964505767615809,0.33625699242949786,0.21293945692501154,5180.450790224446
16496,(Mn0.8Cr0.2)Sir,350,0.00010807143874325076,2.2234455524431542,0.1252454705818184,67778.02183202609
13506,K2Bi8Se7S6,350,-0.00012657340693131666,0.5913207039879691,0.16137646558579394,18780.421809514824
16509,"Zn3.75In0.05Sb3,",350,0.00016701100154884347,0.7859985438275849,0.3909088765526445,33051.24790633964
16495,(Mn0.85Cr0.15)Sir,350,0.00011522009169714048,2.1133730958736328,0.1284804969534415,58667.30145731697
16493,(Mn0.95Cr0.05)Sir,350,0.00014644346741638016,2.3145837928320154,0.11436180714315085,36420.423657849125
15075,ErB22C2N,350,-8.610509722873538e-06,1.351686393877247,2.5454757403263627e-09,0.13259255435449713
15077,ErB22C2N:ErB4,350,-1.3257106459464986e-05,1.9033881333409917,9.486567778506344e-08,2.9354246664836747
16494,(Mn0.9Cr0.1)Sir,350,0.00013652654822849322,2.3461789932509776,0.13075899875791974,43890.894588218056
16492,MnSir,350,0.00016410257750057715,2.563897377259734,0.0968243012827574,25991.72761929941
15069,CaB6,350,-7.894719145908729e-05,22.61687894831875,0.026906184249560868,309612.5798156087
15072,CaB6:SrB6=25:75,350,-9.046020279536654e-05,16.27590847570231,0.03165102085187868,202692.6483626405
15070,CaB6:SrB6=75:25,350,-7.508016370888509e-05,14.286510738180935,0.029656056699885136,255513.2188520001
16510,Zn3.725In0.075Sb3,350,0.00017159779097229244,0.7218815959876661,0.509995112122418,33014.45232551234
15050,Y1−xB28.5C4,350,-1.8018512844200516e-05,1.2688452550004612,3.2974841582235953e-09,0.03682014089225436
15047,(Cu2Se)0.975(CuGaSe2)0.025,350,7.915592956820577e-05,1.2981475071092057,0.1506803128470509,95229.36531204774
13559,Cu1.7Bi4.70Se8,350,-0.0001361879762502858,0.5369089552867781,0.17394559372121615,14356.897866991738
13558,Cu1.6Bi4.75Se8,350,-0.00016565629220081593,0.465078796011564,0.1647245403631929,7976.289832784921
13557,Cu1.5Bi4.80Se8,350,-0.00014090802322564764,0.5670388958233472,0.1346223219897273,10908.833154155385
13556,Cu1.4Bi4.85Se8,350,-0.00011156430808016658,0.5750444946903196,0.14368506281157845,18685.17694339303
13555,Cu1.3Bi4.90Se8,350,-0.0001018528712229156,0.6649229894825839,0.12941379142447784,22647.12748086615
15048,(Cu2Se)0.97(CuGaSe2)0.03,350,7.349898194095995e-05,1.4316334489828986,0.10738979557293954,95194.01522579773
13551,In4Se2.32I0.03,350,-0.0002721729919818389,0.9630974986733016,0.4362325330880712,16371.385171228936
13550,In4Se2.32Br0.03,350,-0.00020196358462870064,1.0957306215737876,0.4584427054377177,35159.83529694198
13549,In4Se2.32Cl0.03,350,-0.0001414006055649859,1.2329294112056843,0.2630518580541384,46170.10467068786
16511,Zn3.675In0.125Sb3,350,0.00017157027963188838,0.8650872900837303,0.4757235493948173,37320.0158066864
13521,NdOZnSb,350,0.00026842686017621795,1.3600768366781697,0.015310191428801412,767.8484503902355
13535,Cu2.925SbSe4,350,0.0003874305956225064,2.0802738666838465,0.10921928447841983,4421.959828716368
13534,Cu2.95SbSe4,350,0.0003974976117729852,2.1062969050814284,0.0963220664045354,4190.632406418977
13561,Cu1.9Bi4.60Se8,350,-0.00010151024108464709,0.5385461265483537,0.13150678093454865,19522.520782529667
16446,Zn4Sb3,350,0.00011336450818109778,1.1878434292556654,0.25067295907696724,69400.79273042364
16447,(Zn0.99Cd0.01)4Sb3,350,0.00013667627959240675,0.9074936974648844,0.3813059808412303,53981.412460087195
13388,Cu2.1Mg0.9SnSe4,350,8.479565836623733e-05,2.1248179960632365,0.04477837194480589,45191.029740819715
16442, (Zn0.99Cd0.01)4Sb3 ,350,0.00015308113117172534,0.7347029718417272,0.4543332837969136,41582.08998214902
16445,(Zn0.985Cd0.015)4Sb3,350,0.00014678931764455802,0.6771029009562749,0.4070878058607675,37966.20435567219
15114,AgSn18SbTe20,350,5.557399585045481e-05,2.8675677625055536,0.10709814267813332,307593.56587098853
15112,AgSn18SbTe20,350,5.27610047459891e-05,3.04732758702871,0.08257719055295584,274530.6265629537
15113,AgSn18SbTe20,350,5.255288777264574e-05,2.9153429022498534,0.08335870364620274,298938.1382947979
16440, (Zn0.995Cd0.005)4Sb3,350,0.00014778106104206917,0.7506736429574665,0.4617133740702441,46432.54759131532
16438,Zn4Sb3,350,0.0001332567022999134,0.7560708024245103,0.3905637776536207,48409.93676643087
16464,(Zn0.997Sm0.003)4Sb3,350,0.00013268416295634378,0.987612884704258,0.2325631703984718,31774.069482234518
16462,(Zn0.999Sm0.001)4Sb3,350,0.000133277405553866,0.9102162114226326,0.2374390841297724,30145.1053662444
16461,Zn4Sb3,350,0.00013333430060563222,0.9313960887124124,0.15780724010275338,21445.85930958422
13449,Ca2.85Na0.15AlSb3,350,0.00013070058658020404,1.3784219330856442,0.023614356826637067,5444.21388124768
16467,MnSi1.7,350,0.00013216046991540778,2.148946190517456,0.08857305471820558,31735.1858581862
235,Pb0.98Na0.02S1,350,8.044243817609572e-05,2.637683259752833,0.09389889399928054,109356.50574098242
6606,LaOBiSSe,350,-0.00010388828796632149,1.0006063651569077,0.1359269054774575,37050.45995358486
6327,YbZn1.95Mn0.05Sb2,350,0.00010008441666649928,2.3471791528513744,0.09450794822202607,74564.10435607939
6329,YbZn1.85Mn0.15Sb2,350,0.00011006991618321612,2.3104708425712586,0.11546104501482952,71114.2522086587
6012,BaGa2Sb2,350,0.0004434292460426584,1.054424539459932,0.04744335497937035,735.5399788364429
6013,BaGa1.975Zn0.025Sb2,350,0.00020365519469713235,1.1269544119484836,0.1843048058297017,13947.127396947008
6014,BaGa1.95Zn0.05Sb2,350,0.00022452746053450674,1.1851059877093937,0.1983575922775531,12764.95280569792
6015,BaGa1.9Zn0.1Sb2,350,0.00022710718354029965,1.1386675179777128,0.18878650306165373,11915.966492799873
6334,Yb0.2Ca0.8Cd2Sb2,350,0.0002473323993495128,1.3680821645517085,0.0906861572172744,5238.93844783761
6004,Yb1.025Zn2Sb2,350,0.0002049069657782157,1.7691368480465504,0.2864555932369384,31825.790322154546
6005,Yb1.05Zn2Sb2,350,0.00018696079657079664,1.410501953208406,0.29253611416836395,30786.568959499255
6331,YbZn1.7Mn0.3Sb2,350,0.00010339194192808166,2.188533387829953,0.06250519689280087,40752.688581604445
6002,Yb0.99Zn2Sb2,350,8.818580840359058e-05,2.59738467050077,0.14793609697421733,155927.00517301232
6001,Yb0.98Zn2Sb2,350,5.97131213091578e-05,3.5579142267543187,0.08494524086193511,277479.1953756913
6003,YbZn2Sb2,350,0.00020920354683680314,1.8829219290517143,0.32578316418222475,37969.378159535685
9672,SnBi6Te10,350,0.00011214673655992341,0.6563409894463526,0.15533831139435525,21000.573059466347
9671,SnBi4Te7,350,0.000120972289020585,0.5924937468397641,0.22804744627263926,26414.76411772728
9670,SnBi2Te4,350,0.00010574346219523443,0.7446325693168431,0.3249633381815033,69574.67674105383
9679,In0.07Sn0.93Bi2Te4,350,0.00012137070174651306,0.5160486509655815,0.26111143625142136,25631.6699229424
9678,In0.05Sn0.95Bi2Te4,350,9.411962318992104e-05,0.7548675269352032,0.08086139881903427,21876.705374354
6322,Ca16Bi11,350,5.44015174507369e-06,1.4973984013573691,0.0001870774817746853,27043.86805168107
9677,In0.03Sn0.97Bi2Te4,350,0.00011519140237023379,0.7544268621170649,0.2526687360665245,44822.45298146762
5143,Sr0.26Co3.95Ni0.05Sb12,350,-0.00010371404957545956,4.498648286533507,0.21216285585662611,256327.5834438092
5146,Sr0.3Yb0.3,350,-9.275490554830755e-05,3.7848001522133714,0.217794403834083,290832.2746508225